 Job started on host drago31020072.mgmt.cc.csic.es
 at Sun Mar 31 01:04:27 2024

 +-------------------------------------------------+
 |                                                 |
 |      CCC   AA    SSS  TTTTT  EEEEE  PPPP        |
 |     C     A  A  S       T    E      P   P       |
 |     C     AAAA   SS     T    EEE    PPPP        |
 |     C     A  A     S    T    E      P           |
 |      CCC  A  A  SSS     T    EEEEE  P           |
 |                                                 |
 +-------------------------------------------------+
 |                                                 |
 | Materials Studio CASTEP version 2024            |
 | Ab Initio Total Energy Program                  |
 |                                                 |
 | Authors:                                        |
 | M. Segall, M. Probert, C. Pickard, P. Hasnip,   |
 | S. Clark, K. Refson, J. R. Yates,               |
 | A. Bartok-Partay, M. Payne                      |
 |                                                 |
 | Contributors:                                   |
 | P. Lindan, P. Haynes, J. White, V. Milman,      |
 | N. Govind, M. Gibson, P. Tulip, V. Cocula,      |
 | B. Montanari, D. Quigley, M. Glover,            |
 | L. Bernasconi, A. Perlov, M. Plummer,           |
 | E. McNellis, J. Meyer, J. Gale, D. Jochym       |
 | J. Aarons, B. Walker, R. Gillen, D. Jones       |
 | T. Green, I. J. Bush, C. J. Armstrong,          |
 | E. J. Higgins, E. L. Brown, M. S. McFly,        |
 | J. Wilkins, B-C. Shih, P. J. P. Byrne,          |
 | R. J. Maurer, J. C. Womack, J. Dziedzic,        |
 | L. LeBlanc, T. K. Stenczel, J. Kermode,         |
 | S. Sturniolo, B. Shi, B. Durham, M. Evans,      |
 | M. J. Smith, A. Tamerus, Z. Hawkhead,           |
 | V. Ravindran, T. Hollins, S. A. Joyce,          |
 | R. T. Strong, A. M. Reilly                      |
 |                                                 |
 | Copyright (c) 2000 - 2023                       |
 |                                                 |
 | Please cite                                     |
 |                                                 |
 |     "First principles methods using CASTEP"     |
 |                                                 |
 |         Zeitschrift fuer Kristallographie       |
 |           220(5-6) pp. 567-570 (2005)           |
 |                                                 |
 | S. J. Clark, M. D. Segall, C. J. Pickard,       |
 | P. J. Hasnip, M. J. Probert, K. Refson,         |
 | M. C. Payne                                     |
 |                                                 |
 |       in all publications arising from          |
 |              your use of CASTEP                 |
 |                                                 |
 +-------------------------------------------------+
 |                                                 |
 |              http://www.castep.org              |
 |                                                 |
 +-------------------------------------------------+
 
 
 This version was compiled for x86_64-rhel7-intel19.0 on Oct 24 2023
 Code version:    a9f326b
 Intel(R) Math Kernel Library Version 2019.0.4 
 Fundamental constants values: CODATA 2018
 
License checkout of MS_castep successful
 
 
 Atomic calculation performed for H: 1s1
 
 Converged in 41 iterations to an ae energy of -12.488 eV
 
 Identity difference: 2.63E-05
 
   ============================================================                
   | Pseudopotential Report - Date of generation 31-03-2024   |                
   ------------------------------------------------------------                
   | Element: H Ionic charge:  1.00 Level of theory: PBE      |                
   | Atomic Solver: Koelling-Harmon                           |                
   |                                                          |                
   |               Reference Electronic Structure             |                
   |         Orbital         Occupation         Energy        |                
   |            1s              1.000           -0.239        |                
   |                                                          |                
   |                 Pseudopotential Definition               |                
   |        Beta     l      e      Rc     scheme   norm       |                
   |          1      0   -0.239   0.599     qc      0         |                
   |          2      0    0.250   0.599     qc      0         |                
   |         loc     1    0.000   0.599     pn      0         |                
   |                                                          |                
   | Augmentation charge Rinner = 0.421                       |                
   | No partial core correction                               |                
   ------------------------------------------------------------                
   | "1|0.6|9|10|15|10UU(qc=8)[]"                             |                
   ------------------------------------------------------------                
   |      Author: Chris J. Pickard, Cambridge University      |                
   ============================================================                
 
 Doing a self consistent calculation for the test configuration
 
 Atomic calculation performed for H: 1s1
 
 Converged in 41 iterations to an ae energy of -12.488 eV
 
 ---------------------------------------
 AE eigenvalue nl 10 =       -0.23860176
 ---------------------------------------
 PS eigenvalue nl 10 =       -0.23857601
 ---------------------------------------
 Maximum eigenvalue error:   2.57E-05
 
 Derived cutoff energies: C=   1 M=   6 F=  10 E=  20
 
 Checking for ghost states up to   1.51185 Ha
 
 No Ghost States Identified
 
 ***************************************
 
 Atomic calculation performed for C: 1s2 2s2 2p2
 
 Converged in 54 iterations to an ae energy of -1027.632 eV
 
 Identity difference: 2.37E-04
 
   ============================================================                
   | Pseudopotential Report - Date of generation 31-03-2024   |                
   ------------------------------------------------------------                
   | Element: C Ionic charge:  4.00 Level of theory: PBE      |                
   | Atomic Solver: Koelling-Harmon                           |                
   |                                                          |                
   |               Reference Electronic Structure             |                
   |         Orbital         Occupation         Energy        |                
   |            2s              2.000           -0.505        |                
   |            2p              2.000           -0.194        |                
   |                                                          |                
   |                 Pseudopotential Definition               |                
   |        Beta     l      e      Rc     scheme   norm       |                
   |          1      0   -0.505   1.395     qc      0         |                
   |          2      0    0.250   1.395     qc      0         |                
   |          3      1   -0.194   1.395     qc      0         |                
   |          4      1    0.250   1.395     qc      0         |                
   |         loc     2    0.000   1.395     pn      0         |                
   |                                                          |                
   | Augmentation charge Rinner = 0.983                       |                
   | Partial core correction Rc = 0.983                       |                
   ------------------------------------------------------------                
   | "2|1.4|11|12|14.7|20UU:21UU(qc=7)[]"                     |                
   ------------------------------------------------------------                
   |      Author: Chris J. Pickard, Cambridge University      |                
   ============================================================                
 
 Doing a self consistent calculation for the test configuration
 
 Atomic calculation performed for C: 1s2 2s2 2p2
 
 Converged in 54 iterations to an ae energy of -1027.632 eV
 
 ---------------------------------------
 AE eigenvalue nl 10 =      -10.04653081
 AE eigenvalue nl 20 =       -0.50533429
 AE eigenvalue nl 21 =       -0.19423807
 ---------------------------------------
 PS eigenvalue nl 20 =       -0.50531853
 PS eigenvalue nl 21 =       -0.19422214
 ---------------------------------------
 Maximum eigenvalue error:   1.59E-05
 
 Derived cutoff energies: C=   6 M=  10 F=  12 E=  16
 
 Checking for ghost states up to   1.47183 Ha
 
 No Ghost States Identified
 
 ***************************************
 
 Atomic calculation performed for N: 1s2 2s2 2p3
 
 Converged in 55 iterations to an ae energy of -1481.742 eV
 
 Identity difference: 2.27E-04
 
   ============================================================                
   | Pseudopotential Report - Date of generation 31-03-2024   |                
   ------------------------------------------------------------                
   | Element: N Ionic charge:  5.00 Level of theory: PBE      |                
   | Atomic Solver: Koelling-Harmon                           |                
   |                                                          |                
   |               Reference Electronic Structure             |                
   |         Orbital         Occupation         Energy        |                
   |            2s              2.000           -0.683        |                
   |            2p              3.000           -0.261        |                
   |                                                          |                
   |                 Pseudopotential Definition               |                
   |        Beta     l      e      Rc     scheme   norm       |                
   |          1      0   -0.683   1.100     qc      0         |                
   |          2      0    0.250   1.100     qc      0         |                
   |          3      1   -0.261   1.100     qc      0         |                
   |          4      1    0.250   1.100     qc      0         |                
   |         loc     2    0.000   1.100     pn      0         |                
   |                                                          |                
   | Augmentation charge Rinner = 0.769                       |                
   | Partial core correction Rc = 0.769                       |                
   ------------------------------------------------------------                
   | "2|1.1|12|16|19|20UU:21UU(qc=7)[]"                       |                
   ------------------------------------------------------------                
   |      Author: Chris J. Pickard, Cambridge University      |                
   ============================================================                
 
 Doing a self consistent calculation for the test configuration
 
 Atomic calculation performed for N: 1s2 2s2 2p3
 
 Converged in 55 iterations to an ae energy of -1481.742 eV
 
 ---------------------------------------
 AE eigenvalue nl 10 =      -14.13820921
 AE eigenvalue nl 20 =       -0.68290611
 AE eigenvalue nl 21 =       -0.26054797
 ---------------------------------------
 PS eigenvalue nl 20 =       -0.68291221
 PS eigenvalue nl 21 =       -0.26051708
 ---------------------------------------
 Maximum eigenvalue error:   3.09E-05
 
 Derived cutoff energies: C=  10 M=  15 F=  18 E=  23
 
 Checking for ghost states up to   1.48495 Ha
 
 No Ghost States Identified
 
 ***************************************
 
 Atomic calculation performed for O: 1s2 2s2 2p4
 
 Converged in 61 iterations to an ae energy of -2040.902 eV
 
 Identity difference: 4.10E-04
 
   ============================================================                
   | Pseudopotential Report - Date of generation 31-03-2024   |                
   ------------------------------------------------------------                
   | Element: O Ionic charge:  6.00 Level of theory: PBE      |                
   | Atomic Solver: Koelling-Harmon                           |                
   |                                                          |                
   |               Reference Electronic Structure             |                
   |         Orbital         Occupation         Energy        |                
   |            2s              2.000           -0.881        |                
   |            2p              4.000           -0.332        |                
   |                                                          |                
   |                 Pseudopotential Definition               |                
   |        Beta     l      e      Rc     scheme   norm       |                
   |          1      0   -0.881   1.100     qc      0         |                
   |          2      0    0.250   1.100     qc      0         |                
   |          3      1   -0.332   1.100     qc      0         |                
   |          4      1    0.250   1.100     qc      0         |                
   |         loc     2    0.000   1.100     pn      0         |                
   |                                                          |                
   | Augmentation charge Rinner = 0.769                       |                
   | Partial core correction Rc = 0.769                       |                
   ------------------------------------------------------------                
   | "2|1.1|14|18|21|20UU:21UU(qc=7)[]"                       |                
   ------------------------------------------------------------                
   |      Author: Chris J. Pickard, Cambridge University      |                
   ============================================================                
 
 Doing a self consistent calculation for the test configuration
 
 Atomic calculation performed for O: 1s2 2s2 2p4
 
 Converged in 61 iterations to an ae energy of -2040.902 eV
 
 ---------------------------------------
 AE eigenvalue nl 10 =      -18.91475256
 AE eigenvalue nl 20 =       -0.88057101
 AE eigenvalue nl 21 =       -0.33186952
 ---------------------------------------
 PS eigenvalue nl 20 =       -0.88059206
 PS eigenvalue nl 21 =       -0.33182157
 ---------------------------------------
 Maximum eigenvalue error:   4.80E-05
 
 Derived cutoff energies: C=  14 M=  17 F=  20 E=  22
 
 Checking for ghost states up to   1.49452 Ha
 
 No Ghost States Identified
 
 ***************************************
 
 Atomic calculation performed for Si: 1s2 2s2 2p6 3s2 3p2
 
 Converged in 54 iterations to an ae energy of -7886.857 eV
 
 Identity difference: 1.35E-04
 
   ============================================================                
   | Pseudopotential Report - Date of generation 31-03-2024   |                
   ------------------------------------------------------------                
   | Element: Si Ionic charge:  4.00 Level of theory: PBE     |                
   | Atomic Solver: Koelling-Harmon                           |                
   |                                                          |                
   |               Reference Electronic Structure             |                
   |         Orbital         Occupation         Energy        |                
   |            3s              2.000           -0.397        |                
   |            3p              2.000           -0.150        |                
   |                                                          |                
   |                 Pseudopotential Definition               |                
   |        Beta     l      e      Rc     scheme   norm       |                
   |          1      0   -0.397   1.797     qc      0         |                
   |          2      0    0.250   1.797     qc      0         |                
   |          3      1   -0.150   1.797     qc      0         |                
   |          4      1    0.250   1.797     qc      0         |                
   |          5      2    0.000   1.797     qc      0         |                
   |          6      2    0.250   1.797     qc      0         |                
   |         loc     3    0.000   1.797     pn      0         |                
   |                                                          |                
   | Augmentation charge Rinner = 1.255                       |                
   | Partial core correction Rc = 1.255                       |                
   ------------------------------------------------------------                
   | "3|1.8|3.6|5|7|30UU:31UU:32UU[]"                         |                
   ------------------------------------------------------------                
   |      Author: Chris J. Pickard, Cambridge University      |                
   ============================================================                
 
 Doing a self consistent calculation for the test configuration
 
 Atomic calculation performed for Si: 1s2 2s2 2p6 3s2 3p2
 
 Converged in 54 iterations to an ae energy of -7886.857 eV
 
 ---------------------------------------
 AE eigenvalue nl 10 =      -65.63192903
 AE eigenvalue nl 20 =       -5.12654326
 AE eigenvalue nl 21 =       -3.51173659
 AE eigenvalue nl 30 =       -0.39736430
 AE eigenvalue nl 31 =       -0.14998156
 ---------------------------------------
 PS eigenvalue nl 30 =       -0.39734922
 PS eigenvalue nl 31 =       -0.14996719
 ---------------------------------------
 Maximum eigenvalue error:   1.51E-05
 
 Derived cutoff energies: C=   1 M=   3 F=   6 E=   6
 
 Checking for ghost states up to   1.41161 Ha
 
 No Ghost States Identified
 
 ***************************************
 
 Pseudo atomic calculation performed for H 1s1
 
 Converged in 13 iterations to a total energy of -12.4790 eV
 
 Pseudo atomic calculation performed for C 2s2 2p2
 
 Converged in 17 iterations to a total energy of -148.5208 eV
 
 Pseudo atomic calculation performed for N 2s2 2p3
 
 Converged in 21 iterations to a total energy of -268.1820 eV
 
 Pseudo atomic calculation performed for O 2s2 2p4
 
 Converged in 23 iterations to a total energy of -432.6536 eV
 
 Pseudo atomic calculation performed for Si 3s2 3p2
 
 Converged in 11 iterations to a total energy of -165.0683 eV
 Calculation parallelised over 48 processes.
 Data is distributed by G-vector(48-way)

 ************************************ Title ************************************
 CASTEP calculation from BIOVIA Materials Studio 2024

 ***************************** General Parameters ******************************
  
 output verbosity                               : normal  (1)
 write checkpoint data to                       : Conf_0013.check
 type of calculation                            : geometry optimization
 stress calculation                             : off
 density difference calculation                 : off
 electron localisation func (ELF) calculation   : off
 Hirshfeld analysis                             : on
 polarisation (Berry phase) analysis            : off
 molecular orbital projected DOS                : off
 deltaSCF calculation                           : off
 unlimited duration calculation
 timing information                             : on
 memory usage estimate                          : on
 write extra output files                       : on
 write final potential to formatted file        : off
 write final density to formatted file          : off
 write BibTeX reference list                    : on
 write OTFG pseudopotential files               : on
 write electrostatic potential file             : on
 write bands file                               : on
 checkpoint writing                             : both castep_bin and check files
  
 output         length unit                     : A
 output           mass unit                     : amu
 output           time unit                     : ps
 output         charge unit                     : e
 output           spin unit                     : hbar/2
 output         energy unit                     : eV
 output          force unit                     : eV/A
 output       velocity unit                     : A/ps
 output       pressure unit                     : GPa
 output     inv_length unit                     : 1/A
 output      frequency unit                     : cm-1
 output force constant unit                     : eV/A**2
 output         volume unit                     : A**3
 output   IR intensity unit                     : (D/A)**2/amu
 output         dipole unit                     : D
 output         efield unit                     : eV/A/e
 output        entropy unit                     : J/mol/K
 output    efield chi2 unit                     : pm/V
  
 wavefunctions paging                           : none
 random number generator seed                   :   10430298
 data distribution                              : optimal for this architecture
 optimization strategy                          : balance speed and memory

 *********************** Exchange-Correlation Parameters ***********************
  
 using functional                               : Perdew Burke Ernzerhof
 relativistic treatment                         : Koelling-Harmon
 DFT+D: Semi-empirical dispersion correction    : on
 SEDC with                                      : G06 correction scheme

 ************************* Pseudopotential Parameters **************************
  
 pseudopotential representation                 : reciprocal space
 <beta|phi> representation                      : reciprocal space
 spin-orbit coupling                            : off

 **************************** Basis Set Parameters *****************************
  
 plane wave basis set cut-off                   :   600.0000   eV
 size of standard grid                          :     1.5000
 size of   fine   gmax                          :    18.8237   1/A
 largest prime factor in FFT                    :          5
 finite basis set correction                    : none

 **************************** Electronic Parameters ****************************
  
 number of  electrons                           :  74.00    
 net charge of system                           : +1.000    
 treating system as non-spin-polarized
 number of bands                                :         37

 ********************* Electronic Minimization Parameters **********************
  
 Method: Treating system as non-metallic,
         and number of  SD  steps               :          1
         and number of  CG  steps               :          4
  
 total energy / atom convergence tol.           : 0.2000E-05   eV
 eigen-energy convergence tolerance             : 0.1000E-05   eV
 max force / atom convergence tol.              : ignored
 convergence tolerance window                   :          3   cycles
 max. number of SCF cycles                      :        100
 periodic dipole correction                     : NONE

 ************************** Density Mixing Parameters **************************
  
 density-mixing scheme                          : Pulay
 max. length of mixing history                  :         20
 charge density mixing amplitude                : 0.5000    
 cut-off energy for mixing                      :  600.0       eV
 charge density mixing g-vector                 :  1.500       1/A

 *********************** Population Analysis Parameters ************************
  
 Population analysis with cutoff                :  3.000       A
 Population analysis output                     : summary and pdos components

 ********************** Geometry Optimization Parameters ***********************
  
 optimization method                            : LBFGS
 max. no. of LBFGS updates                      : unbounded
 preconditioned LBFGS is activated
 preconditioner type                            : EXP
     stabilization constant                     :     0.1000
     parameter A                                :     3.0000
     nearest neighbor distance                  : automatic
     cut-off distance                           : automatic
     parameter mu                               : automatic
 variable cell method                           : fixed basis quality
 max. number of steps                           :        300
 estimated bulk modulus                         :  500.0       GPa
 estimated <frequency>                          :  1668.       cm-1
 geom line minimiser                            : on
 with line minimiser tolerance                  :     0.4000
 total energy convergence tolerance             : 0.2000E-04   eV/atom
        max ionic |force| tolerance             : 0.5000E-01   eV/A
 max ionic |displacement| tolerance             : 0.2000E-02   A
   max |stress component| tolerance             : 0.1000       GPa
 convergence tolerance window                   :          2   steps
 backup results every                           :          5   steps
 write geom trajectory file                     : on

 *******************************************************************************
  
 
                           -------------------------------
                                      Unit Cell
                           -------------------------------
        Real Lattice(A)                      Reciprocal Lattice(1/A)
    13.4840002    -0.0000006    -0.0000006        0.465973392   0.000000000   0.000000000
     0.0000000    20.4006996    -0.0000009        0.000000013   0.307988717   0.000000000
     0.0000000     0.0000000    45.0000000        0.000000006   0.000000006   0.139626340
 
                       Lattice parameters(A)       Cell Angles
                    a =     13.484000          alpha =   90.000003
                    b =     20.400700          beta  =   90.000003
                    c =     45.000000          gamma =   90.000003
 
                       Current cell volume =         12378.736702       A**3
                                   density =             0.015698   AMU/A**3
                                           =             0.026068     g/cm^3
 
                           -------------------------------
                                     Cell Contents
                           -------------------------------
                         Total number of ions in cell =   32
                      Total number of species in cell =    5
                        Max number of any one species =   20
 
            xxxxxxxxxxxxxxxxxxxxxxxxxxxxxxxxxxxxxxxxxxxxxxxxxxxxxxxxxxxx
            x  Element    Atom        Fractional coordinates of atoms  x
            x            Number           u          v          w      x
            x----------------------------------------------------------x
            x  H            1         0.381946   0.445620   0.556210   x 
            x  H            2         0.508357   0.458259   0.544979   x 
            x  H            3         0.410970   0.517827   0.601131   x 
            x  H            4         0.536743   0.528494   0.590430   x 
            x  H            5         0.315269   0.496131   0.512340   x 
            x  H            6         0.345321   0.578717   0.503191   x 
            x  H            7         0.486167   0.461024   0.493744   x 
            x  H            8         0.512321   0.543992   0.484500   x 
            x  H            9         0.362670   0.544885   0.450481   x 
            x  H           10         0.338362   0.462252   0.460024   x 
            x  H           11         0.600105   0.391940   0.423877   x 
            x  H           12         0.548583   0.544257   0.394862   x 
            x  H           13         0.448986   0.424761   0.380864   x 
            x  H           14         0.360700   0.565652   0.553604   x 
            x  H           15         0.473835   0.574396   0.540636   x 
            x  H           16         0.440088   0.396447   0.606465   x 
            x  H           17         0.566005   0.407669   0.596546   x 
            x  H           18         0.546580   0.401222   0.651793   x 
            x  H           19         0.464188   0.469155   0.651356   x 
            x  H           20         0.591006   0.480055   0.641487   x 
            x  C            1         0.445740   0.479346   0.557496   x 
            x  C            2         0.473794   0.493911   0.589718   x 
            x  C            3         0.377003   0.531465   0.510539   x 
            x  C            4         0.451903   0.508000   0.487245   x 
            x  C            5         0.398413   0.498569   0.457286   x 
            x  C            6         0.501934   0.431975   0.607171   x 
            x  C            7         0.527278   0.446434   0.639653   x 
            x  N            1         0.414823   0.543892   0.541582   x 
            x  O            1         0.555637   0.527942   0.414517   x 
            x  O            2         0.417301   0.445517   0.397153   x 
            x  O            3         0.550376   0.408322   0.436807   x 
            x  Si           1         0.481961   0.469566   0.425702   x 
            xxxxxxxxxxxxxxxxxxxxxxxxxxxxxxxxxxxxxxxxxxxxxxxxxxxxxxxxxxxx
 
 
                         No user defined ionic velocities
 
                           -------------------------------
                                   Details of Species
                           -------------------------------
 
                               Mass of species in AMU
                                    H    1.0080000
                                    C   12.0109997
                                    N   14.0070000
                                    O   15.9989996
                                    Si   28.0849991
 
                          Electric Quadrupole Moment (Barn)
                                    H    0.0028600 Isotope  2
                                    C    0.0332700 Isotope 11
                                    N    0.0204400 Isotope 14
                                    O   -0.0255800 Isotope 17
                                    Si    1.0000000 No Isotope Defined
 
                          Files used for pseudopotentials:
                                    H 1|0.6|9|10|15|10UU(qc=8)[]
                                    C 2|1.4|11|12|14.7|20UU:21UU(qc=7)[]
                                    N 2|1.1|12|16|19|20UU:21UU(qc=7)[]
                                    O 2|1.1|14|18|21|20UU:21UU(qc=7)[]
                                    Si 3|1.8|3.6|5|7|30UU:31UU:32UU[]
 
                           -------------------------------
                              k-Points For BZ Sampling
                           -------------------------------
                       MP grid size for SCF calculation is  1  1  1
                            with an offset of   0.000  0.000  0.000
                       Number of kpoints used =             1
 
                           -------------------------------
                               Symmetry and Constraints
                           -------------------------------
 
                      Maximum deviation from symmetry =  0.00000         ANG
 
                      Number of symmetry operations   =           1
                      Number of nonlinear constraints =           3
         There are no ionic constraints specified or generated for this cell
                      Point group of crystal =     1: C1, 1, 1
                      Space group of crystal =     1: P1, P 1
 
             Set iprint > 1 for details on symmetry rotations/translations
 
                         Centre of mass is NOT constrained
 
                         Number of cell constraints= 6
                         Cell constraints are:  0 0 0 0 0 0
 
                         External pressure/stress (GPa)
                          0.00000   0.00000   0.00000
                                    0.00000   0.00000
                                              0.00000
 
                                --------------------
                                  DFT-D parameters
                                --------------------
 
                          Dispersion-correction scheme : G06       
                        Parameter s6 :   0.750000 (default)
                        Parameter d  :  20.000000 (default)
 
        xxxxxxxxxxxxxxxxxxxxxxxxxxxxxxxxxxxxxxxxxxxxxxxxxxxxxxxxxxxxxxxxxxxx
        x              Atomic DFT-D parameters                             x
        x  Species      C6            R0                                   x
        x               eV A^6        Ang                                  x
        x------------------------------------------------------------------x
        x  H             1.4510       1.0010   (default)                   x
        x  C            18.1375       1.4520   (default)                   x
        x  N            12.7481       1.3970   (default)                   x
        x  O             7.2550       1.3420   (default)                   x
        x  Si           95.6622       1.7160   (default)                   x
        xxxxxxxxxxxxxxxxxxxxxxxxxxxxxxxxxxxxxxxxxxxxxxxxxxxxxxxxxxxxxxxxxxxx
 
 
+---------------- MEMORY AND SCRATCH DISK ESTIMATES PER PROCESS --------------+
|                                                     Memory          Disk    |
| Baseline code, static data and system overhead     6530.0 MB         0.0 MB |
| BLAS internal memory storage                          0.0 MB         0.0 MB |
| Model and support data                              540.6 MB         0.0 MB |
| Electronic energy minimisation requirements          31.8 MB         0.0 MB |
| Force calculation requirements                        6.8 MB         0.0 MB |
|                                               ----------------------------- |
| Approx. total storage required per process         7102.3 MB         0.0 MB |
|                                                                             |
| Requirements will fluctuate during execution and may exceed these estimates |
+-----------------------------------------------------------------------------+
Calculating approximate eigenstates for fixed initial Hamiltonian
Cut-off for approx. calculation is  119.774 eV
Improving approx. states at cut-off of  300.000 eV
Resetting cut-off to  600.000 eV
Calculating total energy with cut-off of  600.000 eV.
------------------------------------------------------------------------ <-- SCF
SCF loop      Energy                           Energy gain       Timer   <-- SCF
                                               per atom          (sec)   <-- SCF
------------------------------------------------------------------------ <-- SCF
Initial  -2.92658059E+003                                         30.23  <-- SCF
      1  -3.20292520E+003                    8.63576903E+000      31.03  <-- SCF
      2  -3.20321933E+003                    9.19152396E-003      31.82  <-- SCF
      3  -3.19283026E+003                   -3.24658550E-001      32.96  <-- SCF
      4  -3.19161475E+003                   -3.79846697E-002      34.13  <-- SCF
      5  -3.19099544E+003                   -1.93533220E-002      35.14  <-- SCF
      6  -3.19089616E+003                   -3.10242525E-003      36.44  <-- SCF
      7  -3.19082459E+003                   -2.23666637E-003      37.45  <-- SCF
      8  -3.19081175E+003                   -4.01337554E-004      38.59  <-- SCF
      9  -3.19079716E+003                   -4.55767832E-004      39.59  <-- SCF
     10  -3.19077953E+003                   -5.50996026E-004      40.62  <-- SCF
     11  -3.19075454E+003                   -7.81074852E-004      41.70  <-- SCF
     12  -3.19070469E+003                   -1.55778883E-003      42.78  <-- SCF
     13  -3.19064844E+003                   -1.75779076E-003      43.82  <-- SCF
     14  -3.19058749E+003                   -1.90470307E-003      44.80  <-- SCF
     15  -3.19053206E+003                   -1.73215503E-003      45.79  <-- SCF
     16  -3.19048871E+003                   -1.35455472E-003      46.77  <-- SCF
     17  -3.19046024E+003                   -8.89813904E-004      47.72  <-- SCF
     18  -3.19043097E+003                   -9.14700763E-004      48.71  <-- SCF
     19  -3.19040584E+003                   -7.85150457E-004      49.69  <-- SCF
     20  -3.19038581E+003                   -6.26147693E-004      50.59  <-- SCF
     21  -3.19035876E+003                   -8.45221963E-004      51.57  <-- SCF
     22  -3.19034470E+003                   -4.39397922E-004      52.62  <-- SCF
     23  -3.19034197E+003                   -8.53346960E-005      53.62  <-- SCF
     24  -3.19033889E+003                   -9.60900602E-005      54.54  <-- SCF
     25  -3.19034181E+003                    9.11695231E-005      55.42  <-- SCF
     26  -3.19034572E+003                    1.22166007E-004      56.25  <-- SCF
     27  -3.19035118E+003                    1.70747000E-004      57.10  <-- SCF
     28  -3.19035492E+003                    1.16833278E-004      57.95  <-- SCF
     29  -3.19035849E+003                    1.11343510E-004      58.75  <-- SCF
     30  -3.19036030E+003                    5.67426788E-005      59.54  <-- SCF
     31  -3.19036322E+003                    9.11439004E-005      60.33  <-- SCF
     32  -3.19036533E+003                    6.61462284E-005      61.12  <-- SCF
     33  -3.19036658E+003                    3.88298936E-005      61.91  <-- SCF
     34  -3.19036756E+003                    3.06594221E-005      62.71  <-- SCF
     35  -3.19036828E+003                    2.26838849E-005      63.50  <-- SCF
     36  -3.19036898E+003                    2.15977100E-005      64.29  <-- SCF
     37  -3.19036969E+003                    2.23903480E-005      65.08  <-- SCF
     38  -3.19037006E+003                    1.16496062E-005      65.87  <-- SCF
     39  -3.19037042E+003                    1.11828921E-005      66.67  <-- SCF
     40  -3.19037067E+003                    7.68063638E-006      67.46  <-- SCF
     41  -3.19037097E+003                    9.34360605E-006      68.25  <-- SCF
     42  -3.19037108E+003                    3.63988924E-006      69.04  <-- SCF
     43  -3.19037123E+003                    4.54818296E-006      69.84  <-- SCF
     44  -3.19037135E+003                    3.91076806E-006      70.63  <-- SCF
     45  -3.19037144E+003                    2.72202907E-006      71.42  <-- SCF
     46  -3.19037151E+003                    2.10179682E-006      72.24  <-- SCF
     47  -3.19037153E+003                    7.69195887E-007      73.04  <-- SCF
     48  -3.19037155E+003                    6.43154060E-007      73.83  <-- SCF
------------------------------------------------------------------------ <-- SCF
 
Final energy =  -3190.371554161     eV
(energy not corrected for finite basis set)
 
(SEDC) Total Energy Correction : -0.734369E+00 eV

Dispersion corrected final energy* =  -3191.105923499     eV

Writing analysis data to Conf_0013.castep_bin

Writing model to Conf_0013.check

WARNING - nonlinear constraints cannot be used with LBFGS algorithm
        - consider setting geom_method=DELOCALIZED
 
        => Turning nonlinear constraints OFF
 
+---------------- MEMORY AND SCRATCH DISK ESTIMATES PER PROCESS --------------+
|                                                     Memory          Disk    |
| Model and support data                              550.1 MB         0.0 MB |
| Electronic energy minimisation requirements          31.8 MB         0.0 MB |
| Geometry minimisation requirements                   34.8 MB         0.0 MB |
|                                               ----------------------------- |
| Approx. total storage required per process          616.7 MB         0.0 MB |
|                                                                             |
| Requirements will fluctuate during execution and may exceed these estimates |
+-----------------------------------------------------------------------------+
 
 
 ************************************** Forces **************************************
 *                                                                                  *
 *                           Cartesian components (eV/A)                            *
 * -------------------------------------------------------------------------------- *
 *                         x                    y                    z              *
 *                                                                                  *
 * H               1      0.03166              0.21121             -0.14342         *
 * H               2     -0.15884              0.19935             -0.03289         *
 * H               3      0.01148              0.00031             -0.05377         *
 * H               4     -0.03412              0.02939             -0.03830         *
 * H               5      0.16907              0.10763              0.11282         *
 * H               6     -0.00799             -0.12410              0.01714         *
 * H               7     -0.03687              0.09088              0.04834         *
 * H               8     -0.03463              0.01989              0.13341         *
 * H               9      0.07968             -0.04134             -0.05534         *
 * H              10      0.04086             -0.00759             -0.06407         *
 * H              11      0.74097             -0.33160             -0.55356         *
 * H              12     -0.14887              0.41828             -0.82441         *
 * H              13      0.39524             -0.46953             -0.78197         *
 * H              14     -0.38105              0.31206              0.45092         *
 * H              15      0.57897              0.43028              0.11158         *
 * H              16      0.03003              0.09583             -0.04870         *
 * H              17     -0.10833              0.05289             -0.04655         *
 * H              18     -0.03012              0.13412             -0.13022         *
 * H              19      0.04369             -0.04177             -0.05512         *
 * H              20     -0.08371             -0.02321             -0.03656         *
 * C               1      0.11090              0.49239              0.34967         *
 * C               2      0.02455             -0.00887              0.01865         *
 * C               3     -0.56193              0.36950             -0.74494         *
 * C               4      0.23420             -0.12109              0.17996         *
 * C               5      0.07548             -0.27879             -0.16942         *
 * C               6      0.01867             -0.28647              0.01301         *
 * C               7      0.02275              0.09500              0.16132         *
 * N               1      0.28294             -2.13724             -0.52691         *
 * O               1      0.57325              0.36149              1.02697         *
 * O               2     -1.34459              0.52788              0.59035         *
 * O               3     -0.54607              0.07088              1.50574         *
 * Si              1      0.01273             -0.14766             -0.41370         *
 *                                                                                  *
 ************************************************************************************
 EXP precond LBFGS => estimated nearest neighbor distance :  1.628       A
 EXP precond LBFGS => estimated cutoff distance :  3.257       A
 doing test perturbation to get energy scale for EXP preconditioner
 
                           -------------------------------
                                     Cell Contents
                           -------------------------------
 
            xxxxxxxxxxxxxxxxxxxxxxxxxxxxxxxxxxxxxxxxxxxxxxxxxxxxxxxxxxxxxxxxx
            x  Element         Atom        Fractional coordinates of atoms  x
            x                 Number           u          v          w      x
            x---------------------------------------------------------------x
            x  H                 1         0.383122   0.446167   0.556530   x
            x  H                 2         0.509537   0.458766   0.545306   x
            x  H                 3         0.412168   0.518115   0.601420   x
            x  H                 4         0.537892   0.528739   0.590727   x
            x  H                 5         0.316349   0.496503   0.512683   x
            x  H                 6         0.346451   0.578752   0.503538   x
            x  H                 7         0.487363   0.461522   0.494094   x
            x  H                 8         0.513498   0.544173   0.484853   x
            x  H                 9         0.363825   0.545062   0.450842   x
            x  H                10         0.339482   0.462746   0.460383   x
            x  H                11         0.601143   0.392629   0.424239   x
            x  H                12         0.549715   0.544437   0.395221   x
            x  H                13         0.450194   0.425370   0.381221   x
            x  H                14         0.361852   0.565742   0.553926   x
            x  H                15         0.475038   0.574449   0.540965   x
            x  H                16         0.441295   0.397127   0.606749   x
            x  H                17         0.567109   0.408322   0.596838   x
            x  H                18         0.547716   0.401891   0.652036   x
            x  H                19         0.465394   0.469625   0.651600   x
            x  H                20         0.592063   0.480486   0.641740   x
            x  C                 1         0.446948   0.479780   0.557816   x
            x  C                 2         0.474997   0.494291   0.590016   x
            x  C                 3         0.378174   0.531698   0.510883   x
            x  C                 4         0.453111   0.508327   0.487597   x
            x  C                 5         0.399603   0.498932   0.457645   x
            x  C                 6         0.503120   0.432564   0.607454   x
            x  C                 7         0.528438   0.446979   0.639907   x
            x  N                 1         0.416022   0.544073   0.541911   x
            x  O                 1         0.556759   0.528189   0.414878   x
            x  O                 2         0.418502   0.446064   0.397512   x
            x  O                 3         0.551505   0.408973   0.437169   x
            x  Si                1         0.483159   0.470034   0.426063   x
            xxxxxxxxxxxxxxxxxxxxxxxxxxxxxxxxxxxxxxxxxxxxxxxxxxxxxxxxxxxxxxxxx
 
 
------------------------------------------------------------------------ <-- SCF
SCF loop      Energy                           Energy gain       Timer   <-- SCF
                                               per atom          (sec)   <-- SCF
------------------------------------------------------------------------ <-- SCF
Initial  -3.19220831E+003                                         75.77  <-- SCF
      1  -3.19035057E+003                   -5.80542333E-002      76.58  <-- SCF
      2  -3.19037555E+003                    7.80645528E-004      77.76  <-- SCF
      3  -3.19035040E+003                   -7.86184708E-004      78.76  <-- SCF
      4  -3.19036588E+003                    4.83859334E-004      79.76  <-- SCF
      5  -3.19036612E+003                    7.61274577E-006      80.56  <-- SCF
      6  -3.19036626E+003                    4.16875296E-006      81.33  <-- SCF
      7  -3.19036632E+003                    2.00221048E-006      82.09  <-- SCF
      8  -3.19036637E+003                    1.61535928E-006      82.86  <-- SCF
      9  -3.19036642E+003                    1.50163308E-006      83.62  <-- SCF
     10  -3.19036645E+003                    1.02931752E-006      84.39  <-- SCF
     11  -3.19036649E+003                    1.24805982E-006      85.15  <-- SCF
     12  -3.19036652E+003                    7.79044336E-007      85.92  <-- SCF
     13  -3.19036654E+003                    7.03922149E-007      86.69  <-- SCF
------------------------------------------------------------------------ <-- SCF
 
Final energy =  -3190.366541205     eV
(energy not corrected for finite basis set)
 
(SEDC) Total Energy Correction : -0.734683E+00 eV

Dispersion corrected final energy* =  -3191.101224168     eV
 
 ************************************** Forces **************************************
 *                                                                                  *
 *                           Cartesian components (eV/A)                            *
 * -------------------------------------------------------------------------------- *
 *                         x                    y                    z              *
 *                                                                                  *
 * H               1      0.06004              0.15482             -0.14499         *
 * H               2     -0.13955              0.16222             -0.05093         *
 * H               3     -0.00897              0.02212             -0.03742         *
 * H               4      0.00936              0.08826             -0.02764         *
 * H               5      0.15452              0.07568              0.12991         *
 * H               6     -0.00033             -0.02895             -0.01114         *
 * H               7     -0.00797             -0.01725              0.07456         *
 * H               8      0.00537              0.08743              0.12051         *
 * H               9      0.05383              0.04656             -0.07727         *
 * H              10      0.03069             -0.05248             -0.05317         *
 * H              11      0.78795             -0.33542             -0.59052         *
 * H              12     -0.13817              0.43138             -0.85633         *
 * H              13      0.38802             -0.47957             -0.81025         *
 * H              14     -0.38561              0.33490              0.47232         *
 * H              15      0.60280              0.48831              0.09239         *
 * H              16      0.00006              0.03540             -0.04443         *
 * H              17     -0.05866              0.04880             -0.07354         *
 * H              18     -0.01853              0.06039             -0.09773         *
 * H              19      0.00607             -0.02581             -0.02179         *
 * H              20     -0.01106              0.04258             -0.04000         *
 * C               1      0.11053              0.44588              0.34288         *
 * C               2     -0.00955              0.01375             -0.00033         *
 * C               3     -0.51513              0.31090             -0.73254         *
 * C               4      0.15835             -0.11132              0.16278         *
 * C               5      0.12023             -0.33316             -0.15784         *
 * C               6      0.02000             -0.33312              0.02972         *
 * C               7     -0.00520              0.09235              0.14183         *
 * N               1      0.13264             -2.02183             -0.51973         *
 * O               1      0.65089              0.44961              0.98222         *
 * O               2     -1.36237              0.51975              0.60569         *
 * O               3     -0.53798             -0.00465              1.58067         *
 * Si              1     -0.09227             -0.16752             -0.38789         *
 *                                                                                  *
 ************************************************************************************
 EXP precond LBFGS => estimated parameter mu :  1.859       eV/A**2
 LBFGS: finished iteration     0 with enthalpy= -3.19110592E+003 eV
  
 +-----------+-----------------+-----------------+------------+-----+ <-- LBFGS
 | Parameter |      value      |    tolerance    |    units   | OK? | <-- LBFGS
 +-----------+-----------------+-----------------+------------+-----+ <-- LBFGS
 |  dE/ion   |   0.000000E+000 |   2.000000E-005 |         eV | No  | <-- LBFGS
 |  |F|max   |   2.091777E+000 |   5.000000E-002 |       eV/A | No  | <-- LBFGS
 |  |dR|max  |   7.667620E-015 |   2.000000E-003 |          A | No  | <-- LBFGS
 +-----------+-----------------+-----------------+------------+-----+ <-- LBFGS
  

================================================================================
 Starting LBFGS iteration          1 ...
================================================================================
  
 +------------+-------------+-------------+-----------------+ <-- min LBFGS
 |    Step    |   lambda    |   F.delta'  |    enthalpy     | <-- min LBFGS
 +------------+-------------+-------------+-----------------+ <-- min LBFGS
 |  previous  |    0.000000 |    1.784929 |    -3191.105923 | <-- min LBFGS
 +------------+-------------+-------------+-----------------+ <-- min LBFGS
  

--------------------------------------------------------------------------------
 LBFGS: starting iteration         1 with trial guess (lambda=  0.885476)
--------------------------------------------------------------------------------
 
                           -------------------------------
                                     Cell Contents
                           -------------------------------
 
            xxxxxxxxxxxxxxxxxxxxxxxxxxxxxxxxxxxxxxxxxxxxxxxxxxxxxxxxxxxxxxxxx
            x  Element         Atom        Fractional coordinates of atoms  x
            x                 Number           u          v          w      x
            x---------------------------------------------------------------x
            x  H                 1         0.383481   0.446062   0.555434   x
            x  H                 2         0.508920   0.458617   0.544420   x
            x  H                 3         0.412031   0.517392   0.600357   x
            x  H                 4         0.537579   0.528186   0.589676   x
            x  H                 5         0.316761   0.494869   0.511679   x
            x  H                 6         0.345895   0.576419   0.502376   x
            x  H                 7         0.487104   0.459985   0.493722   x
            x  H                 8         0.513384   0.542611   0.484581   x
            x  H                 9         0.363813   0.543337   0.450232   x
            x  H                10         0.339166   0.460793   0.459787   x
            x  H                11         0.603667   0.390513   0.427530   x
            x  H                12         0.548609   0.553781   0.395304   x
            x  H                13         0.439498   0.425617   0.380548   x
            x  H                14         0.360905   0.563339   0.553529   x
            x  H                15         0.478644   0.572461   0.540105   x
            x  H                16         0.440748   0.396662   0.605574   x
            x  H                17         0.565819   0.407719   0.595662   x
            x  H                18         0.546595   0.402130   0.650706   x
            x  H                19         0.464701   0.469321   0.650418   x
            x  H                20         0.590741   0.480293   0.640582   x
            x  C                 1         0.447405   0.479709   0.557174   x
            x  C                 2         0.474846   0.493553   0.589032   x
            x  C                 3         0.376500   0.530155   0.509212   x
            x  C                 4         0.453581   0.506320   0.487175   x
            x  C                 5         0.399289   0.496722   0.457069   x
            x  C                 6         0.502417   0.431423   0.606359   x
            x  C                 7         0.527536   0.446912   0.638885   x
            x  N                 1         0.417472   0.537936   0.540598   x
            x  O                 1         0.558358   0.536158   0.417374   x
            x  O                 2         0.401817   0.449101   0.398663   x
            x  O                 3         0.548011   0.408310   0.442644   x
            x  Si                1         0.479071   0.471288   0.426980   x
            xxxxxxxxxxxxxxxxxxxxxxxxxxxxxxxxxxxxxxxxxxxxxxxxxxxxxxxxxxxxxxxxx
 
 
------------------------------------------------------------------------ <-- SCF
SCF loop      Energy                           Energy gain       Timer   <-- SCF
                                               per atom          (sec)   <-- SCF
------------------------------------------------------------------------ <-- SCF
Initial  -3.21295037E+003                                         88.07  <-- SCF
      1  -3.18550747E+003                   -8.57590680E-001      88.89  <-- SCF
      2  -3.19006355E+003                    1.42377597E-001      90.24  <-- SCF
      3  -3.18936197E+003                   -2.19244526E-002      91.36  <-- SCF
      4  -3.18948950E+003                    3.98553664E-003      92.37  <-- SCF
      5  -3.18952582E+003                    1.13476139E-003      93.55  <-- SCF
      6  -3.18953020E+003                    1.36972592E-004      94.59  <-- SCF
      7  -3.18953119E+003                    3.10728189E-005      95.46  <-- SCF
      8  -3.18953201E+003                    2.54735343E-005      96.27  <-- SCF
      9  -3.18953258E+003                    1.76722069E-005      97.11  <-- SCF
     10  -3.18953286E+003                    8.91286173E-006      97.88  <-- SCF
     11  -3.18953295E+003                    2.89584983E-006      98.65  <-- SCF
     12  -3.18953297E+003                    5.91039962E-007      99.41  <-- SCF
     13  -3.18953298E+003                    2.71719744E-007     100.18  <-- SCF
------------------------------------------------------------------------ <-- SCF
 
Final energy =  -3189.532980824     eV
(energy not corrected for finite basis set)
 
(SEDC) Total Energy Correction : -0.743160E+00 eV

Dispersion corrected final energy* =  -3190.276140659     eV
 
 ************************************** Forces **************************************
 *                                                                                  *
 *                           Cartesian components (eV/A)                            *
 * -------------------------------------------------------------------------------- *
 *                         x                    y                    z              *
 *                                                                                  *
 * H               1      0.21164             -0.10146              0.12806         *
 * H               2      0.11874             -0.19240              0.11852         *
 * H               3     -0.04794              0.06649              0.01802         *
 * H               4      0.03885              0.05270              0.00451         *
 * H               5     -0.35218             -0.32133             -0.09274         *
 * H               6     -0.21804              0.76216             -0.04348         *
 * H               7      0.10461             -0.27327              0.15348         *
 * H               8      0.01954              0.01883              0.05836         *
 * H               9      0.04790             -0.16173              0.07137         *
 * H              10     -0.00452             -0.08856             -0.05458         *
 * H              11     -2.43353              1.17112              2.31690         *
 * H              12      0.31231             -1.18554              3.10776         *
 * H              13     -1.73874              1.59146              2.62035         *
 * H              14      1.38257             -0.86481             -0.95901         *
 * H              15     -1.32011             -1.15013              0.00255         *
 * H              16     -0.21540             -0.15738             -0.07348         *
 * H              17      0.16603             -0.14075             -0.11113         *
 * H              18      0.10753             -0.24235              0.14252         *
 * H              19     -0.17073              0.07196              0.02586         *
 * H              20      0.13068              0.15191              0.00355         *
 * C               1     -0.01845             -1.38465             -0.31319         *
 * C               2      0.06928              0.16834              0.21935         *
 * C               3      0.80337             -0.90419              0.44384         *
 * C               4     -0.40700              0.23651             -0.51694         *
 * C               5     -0.64376              0.69248              1.05923         *
 * C               6      0.06353              0.31556              0.21557         *
 * C               7     -0.06992             -0.01854             -0.35316         *
 * N               1     -0.62861              3.96441              0.75942         *
 * O               1     -1.57183             -0.61457             -2.47479         *
 * O               2      2.74789             -1.19343             -1.55666         *
 * O               3      1.60055              0.19746             -3.14753         *
 * Si              1      1.91577             -0.46632             -1.77258         *
 *                                                                                  *
 ************************************************************************************
  
 +------------+-------------+-------------+-----------------+ <-- min LBFGS
 |    Step    |   lambda    |   F.delta'  |    enthalpy     | <-- min LBFGS
 +------------+-------------+-------------+-----------------+ <-- min LBFGS
 |  previous  |    0.000000 |    1.784929 |    -3191.105923 | <-- min LBFGS
 | trial step |    0.885476 |   -3.645511 |    -3190.276141 | <-- min LBFGS
 +------------+-------------+-------------+-----------------+ <-- min LBFGS
  

--------------------------------------------------------------------------------
 LBFGS: improving iteration         1 with line minimization (lambda=  0.291047)
--------------------------------------------------------------------------------
 
                           -------------------------------
                                     Cell Contents
                           -------------------------------
 
            xxxxxxxxxxxxxxxxxxxxxxxxxxxxxxxxxxxxxxxxxxxxxxxxxxxxxxxxxxxxxxxxx
            x  Element         Atom        Fractional coordinates of atoms  x
            x                 Number           u          v          w      x
            x---------------------------------------------------------------x
            x  H                 1         0.382451   0.445765   0.555955   x
            x  H                 2         0.508542   0.458377   0.544795   x
            x  H                 3         0.411319   0.517684   0.600877   x
            x  H                 4         0.537018   0.528393   0.590182   x
            x  H                 5         0.315760   0.495716   0.512123   x
            x  H                 6         0.345509   0.577962   0.502923   x
            x  H                 7         0.486475   0.460683   0.493737   x
            x  H                 8         0.512671   0.543538   0.484526   x
            x  H                 9         0.363046   0.544376   0.450399   x
            x  H                10         0.338626   0.461773   0.459946   x
            x  H                11         0.601276   0.391471   0.425078   x
            x  H                12         0.548591   0.547388   0.395007   x
            x  H                13         0.445868   0.425043   0.380760   x
            x  H                14         0.360768   0.564892   0.553579   x
            x  H                15         0.475416   0.573760   0.540461   x
            x  H                16         0.440305   0.396518   0.606172   x
            x  H                17         0.565944   0.407685   0.596255   x
            x  H                18         0.546585   0.401520   0.651436   x
            x  H                19         0.464357   0.469210   0.651048   x
            x  H                20         0.590919   0.480133   0.641190   x
            x  C                 1         0.446288   0.479465   0.557390   x
            x  C                 2         0.474140   0.493793   0.589493   x
            x  C                 3         0.376838   0.531035   0.510103   x
            x  C                 4         0.452455   0.507448   0.487222   x
            x  C                 5         0.398701   0.497962   0.457215   x
            x  C                 6         0.502093   0.431794   0.606904   x
            x  C                 7         0.527363   0.446591   0.639400   x
            x  N                 1         0.415694   0.541934   0.541259   x
            x  O                 1         0.556531   0.530642   0.415456   x
            x  O                 2         0.412212   0.446695   0.397649   x
            x  O                 3         0.549598   0.408318   0.438726   x
            x  Si                1         0.481011   0.470132   0.426122   x
            xxxxxxxxxxxxxxxxxxxxxxxxxxxxxxxxxxxxxxxxxxxxxxxxxxxxxxxxxxxxxxxxx
 
 
------------------------------------------------------------------------ <-- SCF
SCF loop      Energy                           Energy gain       Timer   <-- SCF
                                               per atom          (sec)   <-- SCF
------------------------------------------------------------------------ <-- SCF
Initial  -3.21213443E+003                                        101.50  <-- SCF
      1  -3.18964172E+003                   -7.02897422E-001     102.36  <-- SCF
      2  -3.19080348E+003                    3.63049963E-002     103.45  <-- SCF
      3  -3.19038303E+003                   -1.31388306E-002     104.45  <-- SCF
      4  -3.19051004E+003                    3.96904493E-003     105.55  <-- SCF
      5  -3.19054568E+003                    1.11369198E-003     106.62  <-- SCF
      6  -3.19054654E+003                    2.69271275E-005     107.56  <-- SCF
      7  -3.19054717E+003                    1.94712425E-005     108.35  <-- SCF
      8  -3.19054763E+003                    1.46540161E-005     109.11  <-- SCF
      9  -3.19054821E+003                    1.80653997E-005     109.88  <-- SCF
     10  -3.19054869E+003                    1.48666973E-005     110.64  <-- SCF
     11  -3.19054911E+003                    1.32182089E-005     111.40  <-- SCF
     12  -3.19054958E+003                    1.45235355E-005     112.17  <-- SCF
     13  -3.19054974E+003                    5.12092514E-006     112.94  <-- SCF
     14  -3.19054994E+003                    6.20287774E-006     113.71  <-- SCF
     15  -3.19055005E+003                    3.57741224E-006     114.48  <-- SCF
     16  -3.19055015E+003                    2.98028673E-006     115.25  <-- SCF
     17  -3.19055021E+003                    1.87701572E-006     116.03  <-- SCF
     18  -3.19055023E+003                    7.05471354E-007     116.82  <-- SCF
     19  -3.19055027E+003                    1.07313112E-006     117.61  <-- SCF
------------------------------------------------------------------------ <-- SCF
 
Final energy =  -3190.550265293     eV
(energy not corrected for finite basis set)
 
(SEDC) Total Energy Correction : -0.737603E+00 eV

Dispersion corrected final energy* =  -3191.287867924     eV
 
 ************************************** Forces **************************************
 *                                                                                  *
 *                           Cartesian components (eV/A)                            *
 * -------------------------------------------------------------------------------- *
 *                         x                    y                    z              *
 *                                                                                  *
 * H               1      0.08884              0.12590             -0.05979         *
 * H               2     -0.07317              0.08621              0.01660         *
 * H               3     -0.00500              0.02837             -0.03106         *
 * H               4     -0.01132              0.04430             -0.02279         *
 * H               5      0.00425             -0.03984              0.03923         *
 * H               6     -0.07250              0.16474              0.00401         *
 * H               7      0.01063             -0.01762              0.08271         *
 * H               8     -0.00864              0.01224              0.11036         *
 * H               9      0.07238             -0.06485             -0.01042         *
 * H              10      0.02664             -0.03022             -0.05686         *
 * H              11     -0.65755              0.35395              0.64391         *
 * H              12      0.02108             -0.28519              0.85181         *
 * H              13     -0.46809              0.42956              0.71966         *
 * H              14      0.32781             -0.13071             -0.09581         *
 * H              15     -0.16534             -0.16451              0.09208         *
 * H              16     -0.04784              0.02041             -0.04992         *
 * H              17     -0.02114             -0.00220             -0.06570         *
 * H              18      0.01381              0.02016             -0.02839         *
 * H              19     -0.02401              0.00219             -0.02887         *
 * H              20     -0.01312              0.04273             -0.01949         *
 * C               1      0.03730             -0.01649              0.07621         *
 * C               2      0.03858              0.05420              0.08111         *
 * C               3     -0.11483             -0.02013             -0.34844         *
 * C               4      0.02130             -0.00481             -0.05147         *
 * C               5     -0.10051              0.02050              0.16023         *
 * C               6      0.03445             -0.08164              0.08158         *
 * C               7     -0.00529              0.06217             -0.00412         *
 * N               1     -0.02593             -0.32103             -0.00121         *
 * O               1     -0.26837              0.04510             -0.46657         *
 * O               2      0.22831             -0.20270             -0.39499         *
 * O               3      0.40246              0.05106             -0.31706         *
 * Si              1      0.75484             -0.18186             -0.90653         *
 *                                                                                  *
 ************************************************************************************
  
 +------------+-------------+-------------+-----------------+ <-- min LBFGS
 |    Step    |   lambda    |   F.delta'  |    enthalpy     | <-- min LBFGS
 +------------+-------------+-------------+-----------------+ <-- min LBFGS
 |  previous  |    0.000000 |    1.784929 |    -3191.105923 | <-- min LBFGS
 | trial step |    0.885476 |   -3.645511 |    -3190.276141 | <-- min LBFGS
 |  line step |    0.291047 |   -0.254470 |    -3191.287868 | <-- min LBFGS
 +------------+-------------+-------------+-----------------+ <-- min LBFGS
  
 LBFGS: finished iteration     1 with enthalpy= -3.19128787E+003 eV
  
 +-----------+-----------------+-----------------+------------+-----+ <-- LBFGS
 | Parameter |      value      |    tolerance    |    units   | OK? | <-- LBFGS
 +-----------+-----------------+-----------------+------------+-----+ <-- LBFGS
 |  dE/ion   |   5.685763E-003 |   2.000000E-005 |         eV | No  | <-- LBFGS
 |  |F|max   |   1.193582E+000 |   5.000000E-002 |       eV/A | No  | <-- LBFGS
 |  |dR|max  |   8.696751E-002 |   2.000000E-003 |          A | No  | <-- LBFGS
 +-----------+-----------------+-----------------+------------+-----+ <-- LBFGS
  

================================================================================
 Starting LBFGS iteration          2 ...
================================================================================
  
 +------------+-------------+-------------+-----------------+ <-- min LBFGS
 |    Step    |   lambda    |   F.delta'  |    enthalpy     | <-- min LBFGS
 +------------+-------------+-------------+-----------------+ <-- min LBFGS
 |  previous  |    0.000000 |    0.764280 |    -3191.287868 | <-- min LBFGS
 +------------+-------------+-------------+-----------------+ <-- min LBFGS
  

--------------------------------------------------------------------------------
 LBFGS: starting iteration         2 with trial guess (lambda=  1.000000)
--------------------------------------------------------------------------------
 
                           -------------------------------
                                     Cell Contents
                           -------------------------------
 
            xxxxxxxxxxxxxxxxxxxxxxxxxxxxxxxxxxxxxxxxxxxxxxxxxxxxxxxxxxxxxxxxx
            x  Element         Atom        Fractional coordinates of atoms  x
            x                 Number           u          v          w      x
            x---------------------------------------------------------------x
            x  H                 1         0.384511   0.445723   0.555033   x
            x  H                 2         0.509224   0.458145   0.544127   x
            x  H                 3         0.412532   0.517308   0.599969   x
            x  H                 4         0.538029   0.528140   0.589306   x
            x  H                 5         0.316891   0.493988   0.511318   x
            x  H                 6         0.345760   0.576426   0.501994   x
            x  H                 7         0.487524   0.459484   0.493640   x
            x  H                 8         0.513641   0.542180   0.484534   x
            x  H                 9         0.364705   0.542874   0.450156   x
            x  H                10         0.339879   0.460495   0.459622   x
            x  H                11         0.596387   0.396402   0.429399   x
            x  H                12         0.546617   0.549571   0.398641   x
            x  H                13         0.436356   0.429720   0.383514   x
            x  H                14         0.363331   0.561777   0.552889   x
            x  H                15         0.477663   0.570719   0.539860   x
            x  H                16         0.440779   0.396647   0.605099   x
            x  H                17         0.566166   0.407657   0.595161   x
            x  H                18         0.546933   0.402385   0.650220   x
            x  H                19         0.464737   0.469643   0.649910   x
            x  H                20         0.591008   0.480756   0.640083   x
            x  C                 1         0.448012   0.478922   0.556825   x
            x  C                 2         0.475425   0.493470   0.588730   x
            x  C                 3         0.376724   0.529356   0.508712   x
            x  C                 4         0.453819   0.505928   0.486936   x
            x  C                 5         0.399652   0.496629   0.457117   x
            x  C                 6         0.502801   0.431399   0.605991   x
            x  C                 7         0.527743   0.447259   0.638375   x
            x  N                 1         0.417755   0.537073   0.540294   x
            x  O                 1         0.555072   0.533575   0.418067   x
            x  O                 2         0.403774   0.450358   0.399444   x
            x  O                 3         0.547596   0.412345   0.442447   x
            x  Si                1         0.483320   0.471340   0.425973   x
            xxxxxxxxxxxxxxxxxxxxxxxxxxxxxxxxxxxxxxxxxxxxxxxxxxxxxxxxxxxxxxxxx
 
 
------------------------------------------------------------------------ <-- SCF
SCF loop      Energy                           Energy gain       Timer   <-- SCF
                                               per atom          (sec)   <-- SCF
------------------------------------------------------------------------ <-- SCF
Initial  -3.22229821E+003                                        118.95  <-- SCF
      1  -3.18864257E+003                   -1.05173868E+000     119.78  <-- SCF
      2  -3.19039255E+003                    5.46866700E-002     121.03  <-- SCF
      3  -3.19011944E+003                   -8.53447881E-003     122.15  <-- SCF
      4  -3.19029127E+003                    5.36944385E-003     123.16  <-- SCF
      5  -3.19029661E+003                    1.66912385E-004     124.33  <-- SCF
      6  -3.19029802E+003                    4.40229217E-005     125.30  <-- SCF
      7  -3.19029753E+003                   -1.50780627E-005     126.22  <-- SCF
      8  -3.19029652E+003                   -3.15936846E-005     127.13  <-- SCF
      9  -3.19029607E+003                   -1.42614307E-005     127.95  <-- SCF
     10  -3.19029598E+003                   -2.82714658E-006     128.75  <-- SCF
     11  -3.19029626E+003                    8.97940480E-006     129.54  <-- SCF
     12  -3.19029643E+003                    5.28222615E-006     130.31  <-- SCF
     13  -3.19029679E+003                    1.10951682E-005     131.08  <-- SCF
     14  -3.19029710E+003                    9.73900277E-006     131.87  <-- SCF
     15  -3.19029733E+003                    7.27978201E-006     132.66  <-- SCF
     16  -3.19029755E+003                    6.70895751E-006     133.44  <-- SCF
     17  -3.19029776E+003                    6.76124161E-006     134.22  <-- SCF
     18  -3.19029795E+003                    5.76940668E-006     134.99  <-- SCF
     19  -3.19029803E+003                    2.50923679E-006     135.77  <-- SCF
     20  -3.19029813E+003                    3.27918292E-006     136.55  <-- SCF
     21  -3.19029822E+003                    2.84538853E-006     137.33  <-- SCF
     22  -3.19029828E+003                    1.62465640E-006     138.11  <-- SCF
     23  -3.19029835E+003                    2.20731770E-006     138.89  <-- SCF
     24  -3.19029838E+003                    1.14631146E-006     139.68  <-- SCF
     25  -3.19029846E+003                    2.25808150E-006     140.46  <-- SCF
     26  -3.19029854E+003                    2.68235226E-006     141.25  <-- SCF
     27  -3.19029858E+003                    1.26080685E-006     142.03  <-- SCF
     28  -3.19029872E+003                    4.28479402E-006     142.82  <-- SCF
     29  -3.19029880E+003                    2.59333624E-006     143.60  <-- SCF
     30  -3.19029892E+003                    3.71970293E-006     144.39  <-- SCF
     31  -3.19029902E+003                    3.14165981E-006     145.17  <-- SCF
     32  -3.19029918E+003                    4.88061912E-006     145.96  <-- SCF
     33  -3.19029927E+003                    2.89334060E-006     146.76  <-- SCF
     34  -3.19029938E+003                    3.46319073E-006     147.58  <-- SCF
     35  -3.19029947E+003                    2.92568066E-006     148.37  <-- SCF
     36  -3.19029955E+003                    2.35480004E-006     149.15  <-- SCF
     37  -3.19029962E+003                    2.05143692E-006     149.94  <-- SCF
     38  -3.19029968E+003                    1.95292285E-006     150.72  <-- SCF
     39  -3.19029970E+003                    7.76685823E-007     151.51  <-- SCF
[...]
 * H              15     -0.00102             -0.00715             -0.00201         *
 * H              16      0.00156             -0.00052             -0.00664         *
 * H              17     -0.00167              0.00013              0.00514         *
 * H              18      0.00414             -0.00646              0.00186         *
 * H              19      0.00530             -0.00338              0.00070         *
 * H              20     -0.00496             -0.00403             -0.00431         *
 * C               1     -0.00305              0.00973             -0.00149         *
 * C               2      0.00164             -0.00486             -0.00341         *
 * C               3      0.00470             -0.00641              0.02077         *
 * C               4     -0.00258             -0.00367             -0.01140         *
 * C               5      0.00320             -0.00096             -0.01207         *
 * C               6      0.00372              0.01082              0.00692         *
 * C               7     -0.00116              0.00727             -0.00037         *
 * N               1      0.00007             -0.00060             -0.00166         *
 * O               1     -0.00296             -0.01122              0.00789         *
 * O               2     -0.01849             -0.00248             -0.00875         *
 * O               3     -0.00485             -0.00042             -0.00120         *
 * Si              1      0.00453              0.02168              0.00651         *
 *                                                                                  *
 ************************************************************************************
 
 Pseudo atomic calculation performed for H 1s1
 
 Converged in 13 iterations to a total energy of -12.4790 eV
 
 Pseudo atomic calculation performed for C 2s2 2p2
 
 Converged in 17 iterations to a total energy of -148.5208 eV
 
 Pseudo atomic calculation performed for N 2s2 2p3
 
 Converged in 21 iterations to a total energy of -268.1820 eV
 
 Pseudo atomic calculation performed for O 2s2 2p4
 
 Converged in 23 iterations to a total energy of -432.6536 eV
 
 Pseudo atomic calculation performed for Si 3s2 3p2
 
 Converged in 11 iterations to a total energy of -165.0683 eV
Charge spilling parameter for spin component 1 = 1.55%
 
            Orbital Populations       
     Ion    Atom   Orbital             Charge
  -------------------------------------------
      H     1      S                    0.688
      H     2      S                    0.688
      H     3      S                    0.736
      H     4      S                    0.729
      H     5      S                    0.689
      H     6      S                    0.685
      H     7      S                    0.723
      H     8      S                    0.731
      H     9      S                    0.727
      H    10      S                    0.718
      H    11      S                    0.466
      H    12      S                    0.461
      H    13      S                    0.459
      H    14      S                    0.505
      H    15      S                    0.508
      H    16      S                    0.727
      H    17      S                    0.726
      H    18      S                    0.699
      H    19      S                    0.727
      H    20      S                    0.728
      C     1      S                    1.298
      C     1      Px                   1.209
      C     1      Py                   0.895
      C     1      Pz                   0.998
      C     2      S                    1.297
      C     2      Px                   1.180
      C     2      Py                   1.100
      C     2      Pz                   0.944
      C     3      S                    1.309
      C     3      Px                   1.088
      C     3      Py                   1.240
      C     3      Pz                   0.773
      C     4      S                    1.289
      C     4      Px                   1.062
      C     4      Py                   1.188
      C     4      Pz                   0.978
      C     5      S                    1.406
      C     5      Px                   1.227
      C     5      Py                   1.238
      C     5      Pz                   1.090
      C     6      S                    1.305
      C     6      Px                   1.183
      C     6      Py                   1.023
      C     6      Pz                   1.001
      C     7      S                    1.400
      C     7      Px                   1.194
      C     7      Py                   1.212
      C     7      Pz                   0.989
      N     1      S                    1.590
      N     1      Px                   1.403
      N     1      Py                   1.342
      N     1      Pz                   1.305
      O     1      S                    1.857
      O     1      Px                   1.840
      O     1      Py                   1.671
      O     1      Pz                   1.733
      O     2      S                    1.853
      O     2      Px                   1.833
      O     2      Py                   1.846
      O     2      Pz                   1.562
      O     3      S                    1.856
      O     3      Px                   1.611
      O     3      Py                   1.791
      O     3      Pz                   1.848
     Si     1      S                    0.714
     Si     1      Px                   0.346
     Si     1      Py                   0.359
     Si     1      Pz                   0.400
  -------------------------------------------
                           Total:      74.000
  -------------------------------------------
 
     Atomic Populations (Mulliken)
     -----------------------------
Species          Ion     s       p       d       f      Total   Charge (e)
==========================================================================
  H               1     0.688   0.000   0.000   0.000   0.688     0.312
  H               2     0.688   0.000   0.000   0.000   0.688     0.312
  H               3     0.736   0.000   0.000   0.000   0.736     0.264
  H               4     0.729   0.000   0.000   0.000   0.729     0.271
  H               5     0.689   0.000   0.000   0.000   0.689     0.311
  H               6     0.685   0.000   0.000   0.000   0.685     0.315
  H               7     0.723   0.000   0.000   0.000   0.723     0.277
  H               8     0.731   0.000   0.000   0.000   0.731     0.269
  H               9     0.727   0.000   0.000   0.000   0.727     0.273
  H              10     0.718   0.000   0.000   0.000   0.718     0.282
  H              11     0.466   0.000   0.000   0.000   0.466     0.534
  H              12     0.461   0.000   0.000   0.000   0.461     0.539
  H              13     0.459   0.000   0.000   0.000   0.459     0.541
  H              14     0.505   0.000   0.000   0.000   0.505     0.495
  H              15     0.508   0.000   0.000   0.000   0.508     0.492
  H              16     0.727   0.000   0.000   0.000   0.727     0.273
  H              17     0.726   0.000   0.000   0.000   0.726     0.274
  H              18     0.699   0.000   0.000   0.000   0.699     0.301
  H              19     0.727   0.000   0.000   0.000   0.727     0.273
  H              20     0.728   0.000   0.000   0.000   0.728     0.272
  C               1     1.298   3.102   0.000   0.000   4.400    -0.400
  C               2     1.297   3.224   0.000   0.000   4.521    -0.521
  C               3     1.309   3.101   0.000   0.000   4.410    -0.410
  C               4     1.289   3.229   0.000   0.000   4.518    -0.518
  C               5     1.406   3.555   0.000   0.000   4.960    -0.960
  C               6     1.305   3.207   0.000   0.000   4.511    -0.511
  C               7     1.400   3.395   0.000   0.000   4.795    -0.795
  N               1     1.590   4.050   0.000   0.000   5.641    -0.641
  O               1     1.857   5.244   0.000   0.000   7.102    -1.102
  O               2     1.853   5.241   0.000   0.000   7.094    -1.094
  O               3     1.856   5.249   0.000   0.000   7.106    -1.106
  Si              1     0.714   1.105   0.000   0.000   1.820     2.180
==========================================================================
 
                 Bond                   Population      Length (A)
======================================================================
              H 12 -- O 1                    0.53        0.96857
              H 13 -- O 2                    0.53        0.96858
              H 11 -- O 3                    0.53        0.96872
              H 14 -- N 1                    0.68        1.02875
              H 15 -- N 1                    0.67        1.02990
              H 2  -- C 1                    0.86        1.09604
              H 18 -- C 7                    0.81        1.09647
              H 1  -- C 1                    0.85        1.09781
              H 5  -- C 3                    0.85        1.09824
              H 6  -- C 3                    0.85        1.09913
              H 7  -- C 4                    0.86        1.09921
              H 20 -- C 7                    0.81        1.09946
              H 19 -- C 7                    0.81        1.09970
              H 10 -- C 5                    0.82        1.10157
              H 16 -- C 6                    0.84        1.10171
              H 9  -- C 5                    0.83        1.10187
              H 17 -- C 6                    0.84        1.10192
              H 4  -- C 2                    0.84        1.10321
              H 8  -- C 4                    0.84        1.10355
              H 3  -- C 2                    0.85        1.10430
               C 1 -- N 1                    0.50        1.51253
               C 1 -- C 2                    0.71        1.51867
               C 3 -- C 4                    0.71        1.51883
               C 3 -- N 1                    0.49        1.52180
               C 6 -- C 7                    0.65        1.52752
               C 2 -- C 6                    0.68        1.53230
               C 4 -- C 5                    0.66        1.53564
               O 2 -- Si 1                   0.51        1.63955
              H 14 -- H 15                  -0.11        1.64642
               O 3 -- Si 1                   0.49        1.64811
               O 1 -- Si 1                   0.49        1.65275
              H 9  -- H 10                  -0.10        1.76604
              H 16 -- H 17                  -0.12        1.76726
              H 7  -- H 8                   -0.11        1.77281
              H 18 -- H 19                  -0.10        1.77381
              H 3  -- H 4                   -0.12        1.77568
              H 18 -- H 20                  -0.10        1.77572
              H 19 -- H 20                  -0.11        1.77681
              H 1  -- H 2                   -0.11        1.78264
              H 5  -- H 6                   -0.11        1.78886
               C 5 -- Si 1                   0.57        1.87963
              H 14 -- C 1                   -0.13        2.07337
              H 15 -- C 1                   -0.12        2.08454
              H 15 -- C 3                   -0.12        2.08923
              H 14 -- C 3                   -0.13        2.10001
              H 1  -- N 1                   -0.11        2.10318
              H 6  -- N 1                   -0.12        2.10890
              H 2  -- N 1                   -0.11        2.10945
              H 5  -- N 1                   -0.11        2.11074
              H 3  -- C 1                   -0.14        2.15639
              H 7  -- C 5                   -0.13        2.15727
              H 3  -- C 6                   -0.12        2.16009
              H 17 -- C 2                   -0.14        2.16064
              H 16 -- C 7                   -0.13        2.16090
              H 16 -- C 2                   -0.13        2.16113
              H 8  -- C 3                   -0.14        2.16168
              H 4  -- C 1                   -0.14        2.16391
              H 4  -- C 6                   -0.12        2.16640
              H 7  -- C 3                   -0.13        2.16689
              H 10 -- C 4                   -0.12        2.17111
              H 5  -- C 4                   -0.12        2.17183
              H 18 -- C 6                   -0.12        2.17268
              H 6  -- C 4                   -0.12        2.17408
              H 17 -- C 7                   -0.13        2.17429
              H 1  -- C 2                   -0.12        2.17586
              H 19 -- C 6                   -0.12        2.17716
              H 8  -- C 5                   -0.12        2.18108
              H 9  -- C 4                   -0.12        2.18615
              H 2  -- C 2                   -0.12        2.18636
              H 20 -- C 6                   -0.12        2.18638
              H 11 -- Si 1                  -0.14        2.27020
              H 12 -- Si 1                  -0.12        2.27915
              H 2  -- H 7                   -0.04        2.28306
              H 13 -- Si 1                  -0.13        2.30608
              H 6  -- H 14                  -0.04        2.31698
              H 2  -- H 15                  -0.04        2.36192
              H 3  -- H 14                  -0.01        2.37477
              H 1  -- H 5                   -0.02        2.40653
              H 6  -- H 15                  -0.02        2.43054
              H 5  -- H 14                  -0.02        2.44855
              H 10 -- Si 1                  -0.11        2.45415
              H 1  -- H 14                  -0.02        2.45541
              H 9  -- Si 1                  -0.12        2.46207
              H 4  -- H 17                  -0.04        2.49365
               C 2 -- N 1                   -0.14        2.49432
              H 16 -- H 18                  -0.03        2.49460
               C 3 -- C 5                   -0.16        2.49759
              H 7  -- H 10                  -0.03        2.49938
              H 8  -- H 15                  -0.00        2.51037
              H 17 -- H 18                  -0.03        2.51384
              H 1  -- H 3                   -0.03        2.51620
              H 16 -- H 19                  -0.03        2.51719
              H 6  -- H 8                   -0.03        2.51825
               C 1 -- C 6                   -0.15        2.52010
              H 5  -- H 7                   -0.03        2.52028
              H 3  -- H 16                  -0.03        2.52487
              H 1  -- H 16                  -0.01        2.52590
              H 3  -- H 19                  -0.01        2.52960
              H 2  -- H 4                   -0.03        2.53161
              H 5  -- H 10                  -0.01        2.53189
               C 2 -- C 7                   -0.16        2.53324
               C 4 -- N 1                   -0.13        2.53402
              H 17 -- H 20                  -0.03        2.54524
              H 6  -- H 9                   -0.01        2.54750
              H 8  -- H 9                   -0.03        2.55604
              H 4  -- H 15                  -0.00        2.56933
               C 1 -- C 3                   -0.13        2.57341
              H 14 -- C 2                   -0.04        2.59145
              H 4  -- H 20                  -0.01        2.61526
              H 2  -- H 17                  -0.01        2.61957
               O 1 -- O 3                   -0.08        2.63323
              H 7  -- O 3                   -0.00        2.67233
              H 15 -- C 4                   -0.04        2.69519
              H 1  -- C 3                   -0.04        2.70335
              H 16 -- C 1                   -0.04        2.71512
              H 3  -- N 1                   -0.03        2.71725
              H 3  -- C 7                   -0.04        2.72751
              H 10 -- C 3                   -0.04        2.73389
              H 5  -- C 1                   -0.04        2.73566
              H 9  -- C 3                   -0.04        2.73752
              H 15 -- C 2                   -0.02        2.74445
              H 4  -- N 1                   -0.02        2.74689
               O 1 -- O 2                   -0.08        2.74907
              H 5  -- C 5                   -0.04        2.75547
              H 6  -- C 5                   -0.04        2.76602
              H 17 -- C 1                   -0.03        2.76895
              H 8  -- N 1                   -0.02        2.78004
               C 5 -- O 2                   -0.10        2.78499
               C 5 -- O 3                   -0.11        2.78695
              H 1  -- C 6                   -0.03        2.78819
              H 11 -- O 1                   -0.01        2.78997
              H 4  -- C 7                   -0.03        2.79093
              H 19 -- C 2                   -0.04        2.79320
              H 7  -- N 1                   -0.01        2.79403
               O 2 -- O 3                   -0.06        2.79484
              H 20 -- C 2                   -0.04        2.80799
              H 2  -- C 6                   -0.03        2.81979
              H 2  -- C 3                   -0.01        2.83669
               C 4 -- Si 1                  -0.15        2.85376
              H 7  -- C 1                   -0.03        2.86938
              H 2  -- C 4                   -0.02        2.87129
              H 10 -- O 2                   -0.01        2.87214
              H 12 -- O 2                   -0.01        2.89676
              H 4  -- H 14                  -0.00        2.90231
               C 5 -- O 1                   -0.09        2.94022
              H 2  -- H 14                   0.03        2.94790
              H 1  -- H 15                   0.03        2.95312
              H 5  -- H 15                   0.03        2.95989
======================================================================
 
 
     Hirshfeld Analysis
     ------------------
Species   Ion     Hirshfeld Charge (e)
======================================
  H        1                 0.07
  H        2                 0.07
  H        3                 0.05
  H        4                 0.05
  H        5                 0.07
  H        6                 0.07
  H        7                 0.04
  H        8                 0.05
  H        9                 0.05
  H       10                 0.05
  H       11                 0.17
  H       12                 0.17
  H       13                 0.18
  H       14                 0.18
  H       15                 0.18
  H       16                 0.05
  H       17                 0.04
  H       18                 0.05
  H       19                 0.05
  H       20                 0.05
  C        1                 0.01
  C        2                -0.06
  C        3                 0.01
  C        4                -0.06
  C        5                -0.14
  C        6                -0.05
  C        7                -0.10
  N        1                 0.03
  O        1                -0.29
  O        2                -0.28
  O        3                -0.28
  Si       1                 0.48
======================================
 

Writing analysis data to Conf_0013.castep_bin

Writing model to Conf_0013.check
 
 A BibTeX formatted list of references used in this run has been written to 
 Conf_0013.bib
 
Initialisation time =     24.49 s
Calculation time    =    892.79 s
Finalisation time   =      1.08 s
Total time          =    918.35 s
Peak Memory Use     = 7921040 kB
 
Overall parallel efficiency rating: Satisfactory (66%)
 
Data was distributed by:-
G-vector (48-way); efficiency rating: Satisfactory (67%)
High Water Mark     = 1900352 kB
