 Job started on host drago31060178.mgmt.cc.csic.es
 at Sun Mar 31 01:37:35 2024

 +-------------------------------------------------+
 |                                                 |
 |      CCC   AA    SSS  TTTTT  EEEEE  PPPP        |
 |     C     A  A  S       T    E      P   P       |
 |     C     AAAA   SS     T    EEE    PPPP        |
 |     C     A  A     S    T    E      P           |
 |      CCC  A  A  SSS     T    EEEEE  P           |
 |                                                 |
 +-------------------------------------------------+
 |                                                 |
 | Materials Studio CASTEP version 2024            |
 | Ab Initio Total Energy Program                  |
 |                                                 |
 | Authors:                                        |
 | M. Segall, M. Probert, C. Pickard, P. Hasnip,   |
 | S. Clark, K. Refson, J. R. Yates,               |
 | A. Bartok-Partay, M. Payne                      |
 |                                                 |
 | Contributors:                                   |
 | P. Lindan, P. Haynes, J. White, V. Milman,      |
 | N. Govind, M. Gibson, P. Tulip, V. Cocula,      |
 | B. Montanari, D. Quigley, M. Glover,            |
 | L. Bernasconi, A. Perlov, M. Plummer,           |
 | E. McNellis, J. Meyer, J. Gale, D. Jochym       |
 | J. Aarons, B. Walker, R. Gillen, D. Jones       |
 | T. Green, I. J. Bush, C. J. Armstrong,          |
 | E. J. Higgins, E. L. Brown, M. S. McFly,        |
 | J. Wilkins, B-C. Shih, P. J. P. Byrne,          |
 | R. J. Maurer, J. C. Womack, J. Dziedzic,        |
 | L. LeBlanc, T. K. Stenczel, J. Kermode,         |
 | S. Sturniolo, B. Shi, B. Durham, M. Evans,      |
 | M. J. Smith, A. Tamerus, Z. Hawkhead,           |
 | V. Ravindran, T. Hollins, S. A. Joyce,          |
 | R. T. Strong, A. M. Reilly                      |
 |                                                 |
 | Copyright (c) 2000 - 2023                       |
 |                                                 |
 | Please cite                                     |
 |                                                 |
 |     "First principles methods using CASTEP"     |
 |                                                 |
 |         Zeitschrift fuer Kristallographie       |
 |           220(5-6) pp. 567-570 (2005)           |
 |                                                 |
 | S. J. Clark, M. D. Segall, C. J. Pickard,       |
 | P. J. Hasnip, M. J. Probert, K. Refson,         |
 | M. C. Payne                                     |
 |                                                 |
 |       in all publications arising from          |
 |              your use of CASTEP                 |
 |                                                 |
 +-------------------------------------------------+
 |                                                 |
 |              http://www.castep.org              |
 |                                                 |
 +-------------------------------------------------+
 
 
 This version was compiled for x86_64-rhel7-intel19.0 on Oct 24 2023
 Code version:    a9f326b
 Intel(R) Math Kernel Library Version 2019.0.4 
 Fundamental constants values: CODATA 2018
 
License checkout of MS_castep successful
 
 
 Atomic calculation performed for H: 1s1
 
 Converged in 41 iterations to an ae energy of -12.488 eV
 
 Identity difference: 2.63E-05
 
   ============================================================                
   | Pseudopotential Report - Date of generation 31-03-2024   |                
   ------------------------------------------------------------                
   | Element: H Ionic charge:  1.00 Level of theory: PBE      |                
   | Atomic Solver: Koelling-Harmon                           |                
   |                                                          |                
   |               Reference Electronic Structure             |                
   |         Orbital         Occupation         Energy        |                
   |            1s              1.000           -0.239        |                
   |                                                          |                
   |                 Pseudopotential Definition               |                
   |        Beta     l      e      Rc     scheme   norm       |                
   |          1      0   -0.239   0.599     qc      0         |                
   |          2      0    0.250   0.599     qc      0         |                
   |         loc     1    0.000   0.599     pn      0         |                
   |                                                          |                
   | Augmentation charge Rinner = 0.421                       |                
   | No partial core correction                               |                
   ------------------------------------------------------------                
   | "1|0.6|9|10|15|10UU(qc=8)[]"                             |                
   ------------------------------------------------------------                
   |      Author: Chris J. Pickard, Cambridge University      |                
   ============================================================                
 
 Doing a self consistent calculation for the test configuration
 
 Atomic calculation performed for H: 1s1
 
 Converged in 41 iterations to an ae energy of -12.488 eV
 
 ---------------------------------------
 AE eigenvalue nl 10 =       -0.23860176
 ---------------------------------------
 PS eigenvalue nl 10 =       -0.23857601
 ---------------------------------------
 Maximum eigenvalue error:   2.57E-05
 
 Derived cutoff energies: C=   1 M=   6 F=  10 E=  20
 
 Checking for ghost states up to   1.51185 Ha
 
 No Ghost States Identified
 
 ***************************************
 
 Atomic calculation performed for C: 1s2 2s2 2p2
 
 Converged in 54 iterations to an ae energy of -1027.632 eV
 
 Identity difference: 2.37E-04
 
   ============================================================                
   | Pseudopotential Report - Date of generation 31-03-2024   |                
   ------------------------------------------------------------                
   | Element: C Ionic charge:  4.00 Level of theory: PBE      |                
   | Atomic Solver: Koelling-Harmon                           |                
   |                                                          |                
   |               Reference Electronic Structure             |                
   |         Orbital         Occupation         Energy        |                
   |            2s              2.000           -0.505        |                
   |            2p              2.000           -0.194        |                
   |                                                          |                
   |                 Pseudopotential Definition               |                
   |        Beta     l      e      Rc     scheme   norm       |                
   |          1      0   -0.505   1.395     qc      0         |                
   |          2      0    0.250   1.395     qc      0         |                
   |          3      1   -0.194   1.395     qc      0         |                
   |          4      1    0.250   1.395     qc      0         |                
   |         loc     2    0.000   1.395     pn      0         |                
   |                                                          |                
   | Augmentation charge Rinner = 0.983                       |                
   | Partial core correction Rc = 0.983                       |                
   ------------------------------------------------------------                
   | "2|1.4|11|12|14.7|20UU:21UU(qc=7)[]"                     |                
   ------------------------------------------------------------                
   |      Author: Chris J. Pickard, Cambridge University      |                
   ============================================================                
 
 Doing a self consistent calculation for the test configuration
 
 Atomic calculation performed for C: 1s2 2s2 2p2
 
 Converged in 54 iterations to an ae energy of -1027.632 eV
 
 ---------------------------------------
 AE eigenvalue nl 10 =      -10.04653081
 AE eigenvalue nl 20 =       -0.50533429
 AE eigenvalue nl 21 =       -0.19423807
 ---------------------------------------
 PS eigenvalue nl 20 =       -0.50531853
 PS eigenvalue nl 21 =       -0.19422214
 ---------------------------------------
 Maximum eigenvalue error:   1.59E-05
 
 Derived cutoff energies: C=   6 M=  10 F=  12 E=  16
 
 Checking for ghost states up to   1.47183 Ha
 
 No Ghost States Identified
 
 ***************************************
 
 Atomic calculation performed for N: 1s2 2s2 2p3
 
 Converged in 55 iterations to an ae energy of -1481.742 eV
 
 Identity difference: 2.27E-04
 
   ============================================================                
   | Pseudopotential Report - Date of generation 31-03-2024   |                
   ------------------------------------------------------------                
   | Element: N Ionic charge:  5.00 Level of theory: PBE      |                
   | Atomic Solver: Koelling-Harmon                           |                
   |                                                          |                
   |               Reference Electronic Structure             |                
   |         Orbital         Occupation         Energy        |                
   |            2s              2.000           -0.683        |                
   |            2p              3.000           -0.261        |                
   |                                                          |                
   |                 Pseudopotential Definition               |                
   |        Beta     l      e      Rc     scheme   norm       |                
   |          1      0   -0.683   1.100     qc      0         |                
   |          2      0    0.250   1.100     qc      0         |                
   |          3      1   -0.261   1.100     qc      0         |                
   |          4      1    0.250   1.100     qc      0         |                
   |         loc     2    0.000   1.100     pn      0         |                
   |                                                          |                
   | Augmentation charge Rinner = 0.769                       |                
   | Partial core correction Rc = 0.769                       |                
   ------------------------------------------------------------                
   | "2|1.1|12|16|19|20UU:21UU(qc=7)[]"                       |                
   ------------------------------------------------------------                
   |      Author: Chris J. Pickard, Cambridge University      |                
   ============================================================                
 
 Doing a self consistent calculation for the test configuration
 
 Atomic calculation performed for N: 1s2 2s2 2p3
 
 Converged in 55 iterations to an ae energy of -1481.742 eV
 
 ---------------------------------------
 AE eigenvalue nl 10 =      -14.13820921
 AE eigenvalue nl 20 =       -0.68290611
 AE eigenvalue nl 21 =       -0.26054797
 ---------------------------------------
 PS eigenvalue nl 20 =       -0.68291221
 PS eigenvalue nl 21 =       -0.26051708
 ---------------------------------------
 Maximum eigenvalue error:   3.09E-05
 
 Derived cutoff energies: C=  10 M=  15 F=  18 E=  23
 
 Checking for ghost states up to   1.48495 Ha
 
 No Ghost States Identified
 
 ***************************************
 
 Atomic calculation performed for O: 1s2 2s2 2p4
 
 Converged in 61 iterations to an ae energy of -2040.902 eV
 
 Identity difference: 4.10E-04
 
   ============================================================                
   | Pseudopotential Report - Date of generation 31-03-2024   |                
   ------------------------------------------------------------                
   | Element: O Ionic charge:  6.00 Level of theory: PBE      |                
   | Atomic Solver: Koelling-Harmon                           |                
   |                                                          |                
   |               Reference Electronic Structure             |                
   |         Orbital         Occupation         Energy        |                
   |            2s              2.000           -0.881        |                
   |            2p              4.000           -0.332        |                
   |                                                          |                
   |                 Pseudopotential Definition               |                
   |        Beta     l      e      Rc     scheme   norm       |                
   |          1      0   -0.881   1.100     qc      0         |                
   |          2      0    0.250   1.100     qc      0         |                
   |          3      1   -0.332   1.100     qc      0         |                
   |          4      1    0.250   1.100     qc      0         |                
   |         loc     2    0.000   1.100     pn      0         |                
   |                                                          |                
   | Augmentation charge Rinner = 0.769                       |                
   | Partial core correction Rc = 0.769                       |                
   ------------------------------------------------------------                
   | "2|1.1|14|18|21|20UU:21UU(qc=7)[]"                       |                
   ------------------------------------------------------------                
   |      Author: Chris J. Pickard, Cambridge University      |                
   ============================================================                
 
 Doing a self consistent calculation for the test configuration
 
 Atomic calculation performed for O: 1s2 2s2 2p4
 
 Converged in 61 iterations to an ae energy of -2040.902 eV
 
 ---------------------------------------
 AE eigenvalue nl 10 =      -18.91475256
 AE eigenvalue nl 20 =       -0.88057101
 AE eigenvalue nl 21 =       -0.33186952
 ---------------------------------------
 PS eigenvalue nl 20 =       -0.88059206
 PS eigenvalue nl 21 =       -0.33182157
 ---------------------------------------
 Maximum eigenvalue error:   4.80E-05
 
 Derived cutoff energies: C=  14 M=  17 F=  20 E=  22
 
 Checking for ghost states up to   1.49452 Ha
 
 No Ghost States Identified
 
 ***************************************
 
 Atomic calculation performed for Si: 1s2 2s2 2p6 3s2 3p2
 
 Converged in 54 iterations to an ae energy of -7886.857 eV
 
 Identity difference: 1.35E-04
 
   ============================================================                
   | Pseudopotential Report - Date of generation 31-03-2024   |                
   ------------------------------------------------------------                
   | Element: Si Ionic charge:  4.00 Level of theory: PBE     |                
   | Atomic Solver: Koelling-Harmon                           |                
   |                                                          |                
   |               Reference Electronic Structure             |                
   |         Orbital         Occupation         Energy        |                
   |            3s              2.000           -0.397        |                
   |            3p              2.000           -0.150        |                
   |                                                          |                
   |                 Pseudopotential Definition               |                
   |        Beta     l      e      Rc     scheme   norm       |                
   |          1      0   -0.397   1.797     qc      0         |                
   |          2      0    0.250   1.797     qc      0         |                
   |          3      1   -0.150   1.797     qc      0         |                
   |          4      1    0.250   1.797     qc      0         |                
   |          5      2    0.000   1.797     qc      0         |                
   |          6      2    0.250   1.797     qc      0         |                
   |         loc     3    0.000   1.797     pn      0         |                
   |                                                          |                
   | Augmentation charge Rinner = 1.255                       |                
   | Partial core correction Rc = 1.255                       |                
   ------------------------------------------------------------                
   | "3|1.8|3.6|5|7|30UU:31UU:32UU[]"                         |                
   ------------------------------------------------------------                
   |      Author: Chris J. Pickard, Cambridge University      |                
   ============================================================                
 
 Doing a self consistent calculation for the test configuration
 
 Atomic calculation performed for Si: 1s2 2s2 2p6 3s2 3p2
 
 Converged in 54 iterations to an ae energy of -7886.857 eV
 
 ---------------------------------------
 AE eigenvalue nl 10 =      -65.63192903
 AE eigenvalue nl 20 =       -5.12654326
 AE eigenvalue nl 21 =       -3.51173659
 AE eigenvalue nl 30 =       -0.39736430
 AE eigenvalue nl 31 =       -0.14998156
 ---------------------------------------
 PS eigenvalue nl 30 =       -0.39734922
 PS eigenvalue nl 31 =       -0.14996719
 ---------------------------------------
 Maximum eigenvalue error:   1.51E-05
 
 Derived cutoff energies: C=   1 M=   3 F=   6 E=   6
 
 Checking for ghost states up to   1.41161 Ha
 
 No Ghost States Identified
 
 ***************************************
 
 Pseudo atomic calculation performed for H 1s1
 
 Converged in 13 iterations to a total energy of -12.4790 eV
 
 Pseudo atomic calculation performed for C 2s2 2p2
 
 Converged in 17 iterations to a total energy of -148.5208 eV
 
 Pseudo atomic calculation performed for N 2s2 2p3
 
 Converged in 21 iterations to a total energy of -268.1820 eV
 
 Pseudo atomic calculation performed for O 2s2 2p4
 
 Converged in 23 iterations to a total energy of -432.6536 eV
 
 Pseudo atomic calculation performed for Si 3s2 3p2
 
 Converged in 11 iterations to a total energy of -165.0683 eV
 Calculation parallelised over 48 processes.
 Data is distributed by G-vector(48-way)

 ************************************ Title ************************************
 CASTEP calculation from BIOVIA Materials Studio 2024

 ***************************** General Parameters ******************************
  
 output verbosity                               : normal  (1)
 write checkpoint data to                       : Conf_0032.check
 type of calculation                            : geometry optimization
 stress calculation                             : off
 density difference calculation                 : off
 electron localisation func (ELF) calculation   : off
 Hirshfeld analysis                             : on
 polarisation (Berry phase) analysis            : off
 molecular orbital projected DOS                : off
 deltaSCF calculation                           : off
 unlimited duration calculation
 timing information                             : on
 memory usage estimate                          : on
 write extra output files                       : on
 write final potential to formatted file        : off
 write final density to formatted file          : off
 write BibTeX reference list                    : on
 write OTFG pseudopotential files               : on
 write electrostatic potential file             : on
 write bands file                               : on
 checkpoint writing                             : both castep_bin and check files
  
 output         length unit                     : A
 output           mass unit                     : amu
 output           time unit                     : ps
 output         charge unit                     : e
 output           spin unit                     : hbar/2
 output         energy unit                     : eV
 output          force unit                     : eV/A
 output       velocity unit                     : A/ps
 output       pressure unit                     : GPa
 output     inv_length unit                     : 1/A
 output      frequency unit                     : cm-1
 output force constant unit                     : eV/A**2
 output         volume unit                     : A**3
 output   IR intensity unit                     : (D/A)**2/amu
 output         dipole unit                     : D
 output         efield unit                     : eV/A/e
 output        entropy unit                     : J/mol/K
 output    efield chi2 unit                     : pm/V
  
 wavefunctions paging                           : none
 random number generator seed                   :   13737962
 data distribution                              : optimal for this architecture
 optimization strategy                          : balance speed and memory

 *********************** Exchange-Correlation Parameters ***********************
  
 using functional                               : Perdew Burke Ernzerhof
 relativistic treatment                         : Koelling-Harmon
 DFT+D: Semi-empirical dispersion correction    : on
 SEDC with                                      : G06 correction scheme

 ************************* Pseudopotential Parameters **************************
  
 pseudopotential representation                 : reciprocal space
 <beta|phi> representation                      : reciprocal space
 spin-orbit coupling                            : off

 **************************** Basis Set Parameters *****************************
  
 plane wave basis set cut-off                   :   600.0000   eV
 size of standard grid                          :     1.5000
 size of   fine   gmax                          :    18.8237   1/A
 largest prime factor in FFT                    :          5
 finite basis set correction                    : none

 **************************** Electronic Parameters ****************************
  
 number of  electrons                           :  74.00    
 net charge of system                           : +1.000    
 treating system as non-spin-polarized
 number of bands                                :         37

 ********************* Electronic Minimization Parameters **********************
  
 Method: Treating system as non-metallic,
         and number of  SD  steps               :          1
         and number of  CG  steps               :          4
  
 total energy / atom convergence tol.           : 0.2000E-05   eV
 eigen-energy convergence tolerance             : 0.1000E-05   eV
 max force / atom convergence tol.              : ignored
 convergence tolerance window                   :          3   cycles
 max. number of SCF cycles                      :        100
 periodic dipole correction                     : NONE

 ************************** Density Mixing Parameters **************************
  
 density-mixing scheme                          : Pulay
 max. length of mixing history                  :         20
 charge density mixing amplitude                : 0.5000    
 cut-off energy for mixing                      :  600.0       eV
 charge density mixing g-vector                 :  1.500       1/A

 *********************** Population Analysis Parameters ************************
  
 Population analysis with cutoff                :  3.000       A
 Population analysis output                     : summary and pdos components

 ********************** Geometry Optimization Parameters ***********************
  
 optimization method                            : LBFGS
 max. no. of LBFGS updates                      : unbounded
 preconditioned LBFGS is activated
 preconditioner type                            : EXP
     stabilization constant                     :     0.1000
     parameter A                                :     3.0000
     nearest neighbor distance                  : automatic
     cut-off distance                           : automatic
     parameter mu                               : automatic
 variable cell method                           : fixed basis quality
 max. number of steps                           :        300
 estimated bulk modulus                         :  500.0       GPa
 estimated <frequency>                          :  1668.       cm-1
 geom line minimiser                            : on
 with line minimiser tolerance                  :     0.4000
 total energy convergence tolerance             : 0.2000E-04   eV/atom
        max ionic |force| tolerance             : 0.5000E-01   eV/A
 max ionic |displacement| tolerance             : 0.2000E-02   A
   max |stress component| tolerance             : 0.1000       GPa
 convergence tolerance window                   :          2   steps
 backup results every                           :          5   steps
 write geom trajectory file                     : on

 *******************************************************************************
  
 
                           -------------------------------
                                      Unit Cell
                           -------------------------------
        Real Lattice(A)                      Reciprocal Lattice(1/A)
    13.4840002    -0.0000006    -0.0000006        0.465973392   0.000000000   0.000000000
     0.0000000    20.4006996    -0.0000009        0.000000013   0.307988717   0.000000000
     0.0000000     0.0000000    45.0000000        0.000000006   0.000000006   0.139626340
 
                       Lattice parameters(A)       Cell Angles
                    a =     13.484000          alpha =   90.000003
                    b =     20.400700          beta  =   90.000003
                    c =     45.000000          gamma =   90.000003
 
                       Current cell volume =         12378.736702       A**3
                                   density =             0.015698   AMU/A**3
                                           =             0.026068     g/cm^3
 
                           -------------------------------
                                     Cell Contents
                           -------------------------------
                         Total number of ions in cell =   32
                      Total number of species in cell =    5
                        Max number of any one species =   20
 
            xxxxxxxxxxxxxxxxxxxxxxxxxxxxxxxxxxxxxxxxxxxxxxxxxxxxxxxxxxxx
            x  Element    Atom        Fractional coordinates of atoms  x
            x            Number           u          v          w      x
            x----------------------------------------------------------x
            x  H            1         0.523956   0.407017   0.559170   x 
            x  H            2         0.584542   0.482675   0.549671   x 
            x  H            3         0.412902   0.468391   0.594966   x 
            x  H            4         0.474414   0.542824   0.586041   x 
            x  H            5         0.542323   0.463116   0.499130   x 
            x  H            6         0.480646   0.388980   0.509887   x 
            x  H            7         0.317044   0.458028   0.490111   x 
            x  H            8         0.384242   0.403468   0.467967   x 
            x  H            9         0.422113   0.552092   0.467455   x 
            x  H           10         0.343650   0.509563   0.442740   x 
            x  H           11         0.681527   0.482637   0.440217   x 
            x  H           12         0.498073   0.548711   0.389081   x 
            x  H           13         0.543818   0.409580   0.395518   x 
            x  H           14         0.368128   0.454984   0.540470   x 
            x  H           15         0.425648   0.523349   0.530917   x 
            x  H           16         0.573126   0.422277   0.614668   x 
            x  H           17         0.633901   0.496852   0.606047   x 
            x  H           18         0.587609   0.493895   0.659782   x 
            x  H           19         0.460891   0.481713   0.650497   x 
            x  H           20         0.520447   0.557102   0.641465   x 
            x  C            1         0.515048   0.460702   0.557920   x 
            x  C            2         0.484738   0.489300   0.587966   x 
            x  C            3         0.469951   0.441301   0.504662   x 
            x  C            4         0.390985   0.450435   0.480105   x 
            x  C            5         0.410898   0.504203   0.456569   x 
            x  C            6         0.561527   0.475675   0.612428   x 
            x  C            7         0.530926   0.503576   0.642644   x 
            x  N            1         0.433592   0.474541   0.534042   x 
            x  O            1         0.537808   0.545669   0.406426   x 
            x  O            2         0.502558   0.419325   0.412037   x 
            x  O            3         0.619905   0.479124   0.450352   x 
            x  Si           1         0.519285   0.487245   0.430415   x 
            xxxxxxxxxxxxxxxxxxxxxxxxxxxxxxxxxxxxxxxxxxxxxxxxxxxxxxxxxxxx
 
 
                         No user defined ionic velocities
 
                           -------------------------------
                                   Details of Species
                           -------------------------------
 
                               Mass of species in AMU
                                    H    1.0080000
                                    C   12.0109997
                                    N   14.0070000
                                    O   15.9989996
                                    Si   28.0849991
 
                          Electric Quadrupole Moment (Barn)
                                    H    0.0028600 Isotope  2
                                    C    0.0332700 Isotope 11
                                    N    0.0204400 Isotope 14
                                    O   -0.0255800 Isotope 17
                                    Si    1.0000000 No Isotope Defined
 
                          Files used for pseudopotentials:
                                    H 1|0.6|9|10|15|10UU(qc=8)[]
                                    C 2|1.4|11|12|14.7|20UU:21UU(qc=7)[]
                                    N 2|1.1|12|16|19|20UU:21UU(qc=7)[]
                                    O 2|1.1|14|18|21|20UU:21UU(qc=7)[]
                                    Si 3|1.8|3.6|5|7|30UU:31UU:32UU[]
 
                           -------------------------------
                              k-Points For BZ Sampling
                           -------------------------------
                       MP grid size for SCF calculation is  1  1  1
                            with an offset of   0.000  0.000  0.000
                       Number of kpoints used =             1
 
                           -------------------------------
                               Symmetry and Constraints
                           -------------------------------
 
                      Maximum deviation from symmetry =  0.00000         ANG
 
                      Number of symmetry operations   =           1
                      Number of nonlinear constraints =           3
         There are no ionic constraints specified or generated for this cell
                      Point group of crystal =     1: C1, 1, 1
                      Space group of crystal =     1: P1, P 1
 
             Set iprint > 1 for details on symmetry rotations/translations
 
                         Centre of mass is NOT constrained
 
                         Number of cell constraints= 6
                         Cell constraints are:  0 0 0 0 0 0
 
                         External pressure/stress (GPa)
                          0.00000   0.00000   0.00000
                                    0.00000   0.00000
                                              0.00000
 
                                --------------------
                                  DFT-D parameters
                                --------------------
 
                          Dispersion-correction scheme : G06       
                        Parameter s6 :   0.750000 (default)
                        Parameter d  :  20.000000 (default)
 
        xxxxxxxxxxxxxxxxxxxxxxxxxxxxxxxxxxxxxxxxxxxxxxxxxxxxxxxxxxxxxxxxxxxx
        x              Atomic DFT-D parameters                             x
        x  Species      C6            R0                                   x
        x               eV A^6        Ang                                  x
        x------------------------------------------------------------------x
        x  H             1.4510       1.0010   (default)                   x
        x  C            18.1375       1.4520   (default)                   x
        x  N            12.7481       1.3970   (default)                   x
        x  O             7.2550       1.3420   (default)                   x
        x  Si           95.6622       1.7160   (default)                   x
        xxxxxxxxxxxxxxxxxxxxxxxxxxxxxxxxxxxxxxxxxxxxxxxxxxxxxxxxxxxxxxxxxxxx
 
 
+---------------- MEMORY AND SCRATCH DISK ESTIMATES PER PROCESS --------------+
|                                                     Memory          Disk    |
| Baseline code, static data and system overhead     6530.0 MB         0.0 MB |
| BLAS internal memory storage                          0.0 MB         0.0 MB |
| Model and support data                              540.6 MB         0.0 MB |
| Electronic energy minimisation requirements          31.8 MB         0.0 MB |
| Force calculation requirements                        6.8 MB         0.0 MB |
|                                               ----------------------------- |
| Approx. total storage required per process         7102.3 MB         0.0 MB |
|                                                                             |
| Requirements will fluctuate during execution and may exceed these estimates |
+-----------------------------------------------------------------------------+
Calculating approximate eigenstates for fixed initial Hamiltonian
Cut-off for approx. calculation is  119.774 eV
Improving approx. states at cut-off of  300.000 eV
Resetting cut-off to  600.000 eV
Calculating total energy with cut-off of  600.000 eV.
------------------------------------------------------------------------ <-- SCF
SCF loop      Energy                           Energy gain       Timer   <-- SCF
                                               per atom          (sec)   <-- SCF
------------------------------------------------------------------------ <-- SCF
Initial  -2.96121640E+003                                         30.60  <-- SCF
      1  -3.20345929E+003                    7.57009045E+000      31.43  <-- SCF
      2  -3.20400741E+003                    1.71287224E-002      32.32  <-- SCF
      3  -3.19277887E+003                   -3.50892003E-001      33.38  <-- SCF
      4  -3.19158717E+003                   -3.72405469E-002      34.56  <-- SCF
      5  -3.19094559E+003                   -2.00492212E-002      35.56  <-- SCF
      6  -3.19085571E+003                   -2.80878685E-003      36.84  <-- SCF
      7  -3.19079594E+003                   -1.86771750E-003      37.85  <-- SCF
      8  -3.19078630E+003                   -3.01559697E-004      38.96  <-- SCF
      9  -3.19077623E+003                   -3.14434487E-004      39.96  <-- SCF
     10  -3.19076304E+003                   -4.12300028E-004      40.99  <-- SCF
     11  -3.19073564E+003                   -8.56293783E-004      42.05  <-- SCF
     12  -3.19068173E+003                   -1.68454771E-003      43.08  <-- SCF
     13  -3.19061789E+003                   -1.99505971E-003      44.09  <-- SCF
     14  -3.19055149E+003                   -2.07508042E-003      45.12  <-- SCF
     15  -3.19050495E+003                   -1.45429834E-003      46.10  <-- SCF
     16  -3.19046240E+003                   -1.32955418E-003      47.09  <-- SCF
     17  -3.19043336E+003                   -9.07571616E-004      48.09  <-- SCF
     18  -3.19040904E+003                   -7.60021528E-004      49.09  <-- SCF
     19  -3.19038289E+003                   -8.17278239E-004      50.12  <-- SCF
     20  -3.19035963E+003                   -7.26733913E-004      51.16  <-- SCF
     21  -3.19033727E+003                   -6.98722316E-004      52.14  <-- SCF
     22  -3.19031690E+003                   -6.36844974E-004      53.08  <-- SCF
     23  -3.19031051E+003                   -1.99497648E-004      53.93  <-- SCF
     24  -3.19030912E+003                   -4.34979103E-005      54.90  <-- SCF
     25  -3.19031444E+003                    1.66305342E-004      55.81  <-- SCF
     26  -3.19031803E+003                    1.12169294E-004      56.60  <-- SCF
     27  -3.19032402E+003                    1.87036909E-004      57.44  <-- SCF
     28  -3.19032798E+003                    1.23866230E-004      58.23  <-- SCF
     29  -3.19033061E+003                    8.21374176E-005      59.03  <-- SCF
     30  -3.19033448E+003                    1.20956919E-004      59.82  <-- SCF
     31  -3.19033589E+003                    4.41123144E-005      60.68  <-- SCF
     32  -3.19033780E+003                    5.97688788E-005      61.53  <-- SCF
     33  -3.19033902E+003                    3.81473489E-005      62.33  <-- SCF
     34  -3.19033995E+003                    2.88313421E-005      63.15  <-- SCF
     35  -3.19034089E+003                    2.93966199E-005      63.95  <-- SCF
     36  -3.19034135E+003                    1.45580210E-005      64.75  <-- SCF
     37  -3.19034207E+003                    2.23211716E-005      65.54  <-- SCF
     38  -3.19034243E+003                    1.13493302E-005      66.33  <-- SCF
     39  -3.19034282E+003                    1.22181265E-005      67.12  <-- SCF
     40  -3.19034317E+003                    1.08860422E-005      67.91  <-- SCF
     41  -3.19034342E+003                    7.93131932E-006      68.70  <-- SCF
     42  -3.19034370E+003                    8.55929833E-006      69.50  <-- SCF
     43  -3.19034382E+003                    3.77982601E-006      70.30  <-- SCF
     44  -3.19034392E+003                    3.27941609E-006      71.09  <-- SCF
     45  -3.19034399E+003                    2.22222259E-006      71.88  <-- SCF
     46  -3.19034403E+003                    1.23462422E-006      72.67  <-- SCF
     47  -3.19034408E+003                    1.29988433E-006      73.46  <-- SCF
     48  -3.19034410E+003                    6.75990731E-007      74.26  <-- SCF
------------------------------------------------------------------------ <-- SCF
 
Final energy =  -3190.344096889     eV
(energy not corrected for finite basis set)
 
(SEDC) Total Energy Correction : -0.746672E+00 eV

Dispersion corrected final energy* =  -3191.090768826     eV

Writing analysis data to Conf_0032.castep_bin

Writing model to Conf_0032.check

WARNING - nonlinear constraints cannot be used with LBFGS algorithm
        - consider setting geom_method=DELOCALIZED
 
        => Turning nonlinear constraints OFF
 
+---------------- MEMORY AND SCRATCH DISK ESTIMATES PER PROCESS --------------+
|                                                     Memory          Disk    |
| Model and support data                              550.1 MB         0.0 MB |
| Electronic energy minimisation requirements          31.8 MB         0.0 MB |
| Geometry minimisation requirements                   34.8 MB         0.0 MB |
|                                               ----------------------------- |
| Approx. total storage required per process          616.7 MB         0.0 MB |
|                                                                             |
| Requirements will fluctuate during execution and may exceed these estimates |
+-----------------------------------------------------------------------------+
 
 
 ************************************** Forces **************************************
 *                                                                                  *
 *                           Cartesian components (eV/A)                            *
 * -------------------------------------------------------------------------------- *
 *                         x                    y                    z              *
 *                                                                                  *
 * H               1     -0.13558              0.14582             -0.14642         *
 * H               2     -0.23836             -0.04261             -0.09686         *
 * H               3      0.00487             -0.00170             -0.04455         *
 * H               4     -0.01553             -0.05185             -0.05520         *
 * H               5     -0.17027              0.01791              0.04415         *
 * H               6     -0.08811              0.24428              0.18323         *
 * H               7      0.04852              0.01604              0.12109         *
 * H               8      0.03905              0.09235              0.19104         *
 * H               9      0.07202              0.06246             -0.13111         *
 * H              10      0.10625             -0.03399              0.07519         *
 * H              11      0.89467              0.09938             -0.42555         *
 * H              12     -0.53902              0.07088             -0.85972         *
 * H              13      0.53226             -0.20336             -0.76624         *
 * H              14     -0.61105             -0.24046              0.19437         *
 * H              15     -0.11260              0.62767             -0.05346         *
 * H              16     -0.05080              0.04323             -0.07448         *
 * H              17     -0.08986             -0.01679             -0.05445         *
 * H              18     -0.10405             -0.02880             -0.17592         *
 * H              19      0.06719              0.05086             -0.06106         *
 * H              20      0.01739             -0.08187             -0.00559         *
 * C               1     -0.70348              0.48381              0.36460         *
 * C               2      0.00768              0.00781              0.04228         *
 * C               3     -1.06171              0.41116             -0.02673         *
 * C               4      0.10785             -0.38714             -0.50428         *
 * C               5      0.35074             -0.25453              0.08677         *
 * C               6      0.23208             -0.11551              0.07916         *
 * C               7     -0.10279              0.07966              0.09899         *
 * N               1      2.82173             -1.37306             -0.49528         *
 * O               1      0.66242              0.64676              0.74447         *
 * O               2     -1.25899             -0.43826              0.76473         *
 * O               3     -0.41712              0.18740              1.19622         *
 * Si              1     -0.26538             -0.01760             -0.20938         *
 *                                                                                  *
 ************************************************************************************
 EXP precond LBFGS => estimated nearest neighbor distance :  1.627       A
 EXP precond LBFGS => estimated cutoff distance :  3.255       A
 doing test perturbation to get energy scale for EXP preconditioner
 
                           -------------------------------
                                     Cell Contents
                           -------------------------------
 
            xxxxxxxxxxxxxxxxxxxxxxxxxxxxxxxxxxxxxxxxxxxxxxxxxxxxxxxxxxxxxxxxx
            x  Element         Atom        Fractional coordinates of atoms  x
            x                 Number           u          v          w      x
            x---------------------------------------------------------------x
            x  H                 1         0.525152   0.407543   0.559488   x
            x  H                 2         0.585748   0.482888   0.549995   x
            x  H                 3         0.413995   0.468668   0.595259   x
            x  H                 4         0.475577   0.542754   0.586340   x
            x  H                 5         0.543526   0.463417   0.499478   x
            x  H                 6         0.481815   0.389568   0.510231   x
            x  H                 7         0.317967   0.458351   0.490462   x
            x  H                 8         0.385292   0.404007   0.468325   x
            x  H                 9         0.423218   0.551979   0.467812   x
            x  H                10         0.344627   0.509652   0.443101   x
            x  H                11         0.682680   0.482851   0.440578   x
            x  H                12         0.499255   0.548613   0.389439   x
            x  H                13         0.545022   0.410097   0.395877   x
            x  H                14         0.369150   0.455321   0.540799   x
            x  H                15         0.426758   0.523372   0.531252   x
            x  H                16         0.574333   0.422747   0.614944   x
            x  H                17         0.635091   0.496999   0.606331   x
            x  H                18         0.588815   0.494056   0.660016   x
            x  H                19         0.462042   0.481930   0.650741   x
            x  H                20         0.521642   0.556966   0.641717   x
            x  C                 1         0.516240   0.461013   0.558239   x
            x  C                 2         0.485910   0.489483   0.588264   x
            x  C                 3         0.471111   0.441695   0.505008   x
            x  C                 4         0.392045   0.450790   0.480460   x
            x  C                 5         0.411988   0.504316   0.456928   x
            x  C                 6         0.562733   0.475920   0.612707   x
            x  C                 7         0.532125   0.503693   0.642895   x
            x  N                 1         0.434712   0.474791   0.534375   x
            x  O                 1         0.539010   0.545586   0.406787   x
            x  O                 2         0.503743   0.419807   0.412398   x
            x  O                 3         0.621102   0.479353   0.450713   x
            x  Si                1         0.520479   0.487437   0.430776   x
            xxxxxxxxxxxxxxxxxxxxxxxxxxxxxxxxxxxxxxxxxxxxxxxxxxxxxxxxxxxxxxxxx
 
 
------------------------------------------------------------------------ <-- SCF
SCF loop      Energy                           Energy gain       Timer   <-- SCF
                                               per atom          (sec)   <-- SCF
------------------------------------------------------------------------ <-- SCF
Initial  -3.19197705E+003                                         76.26  <-- SCF
      1  -3.19032200E+003                   -5.17203791E-002      77.06  <-- SCF
      2  -3.19034454E+003                    7.04266685E-004      78.26  <-- SCF
      3  -3.19031905E+003                   -7.96643408E-004      79.28  <-- SCF
      4  -3.19033514E+003                    5.02880441E-004      80.28  <-- SCF
      5  -3.19033540E+003                    8.10495365E-006      81.08  <-- SCF
      6  -3.19033559E+003                    5.86909080E-006      81.84  <-- SCF
      7  -3.19033565E+003                    1.88927657E-006      82.61  <-- SCF
      8  -3.19033568E+003                    1.07667008E-006      83.37  <-- SCF
      9  -3.19033572E+003                    1.14691461E-006      84.14  <-- SCF
     10  -3.19033574E+003                    6.57932075E-007      84.91  <-- SCF
------------------------------------------------------------------------ <-- SCF
 
Final energy =  -3190.335738695     eV
(energy not corrected for finite basis set)
 
(SEDC) Total Energy Correction : -0.746582E+00 eV

Dispersion corrected final energy* =  -3191.082320554     eV
 
 ************************************** Forces **************************************
 *                                                                                  *
 *                           Cartesian components (eV/A)                            *
 * -------------------------------------------------------------------------------- *
 *                         x                    y                    z              *
 *                                                                                  *
 * H               1     -0.10164              0.01334             -0.15792         *
 * H               2     -0.24310             -0.01880             -0.09904         *
 * H               3      0.00921             -0.01992             -0.03749         *
 * H               4     -0.02592              0.10829             -0.06400         *
 * H               5     -0.14366              0.04336              0.03492         *
 * H               6     -0.04565              0.11496              0.19874         *
 * H               7      0.08664              0.01581              0.12590         *
 * H               8      0.02895             -0.01276              0.17891         *
 * H               9      0.08020              0.18353             -0.08771         *
 * H              10      0.14502             -0.02826              0.08488         *
 * H              11      0.91485              0.10201             -0.44374         *
 * H              12     -0.54074              0.07710             -0.82949         *
 * H              13      0.53379             -0.20950             -0.77328         *
 * H              14     -0.58614             -0.24773              0.17698         *
 * H              15     -0.12951              0.83389             -0.06758         *
 * H              16     -0.01915             -0.09950             -0.07821         *
 * H              17     -0.08422              0.01324             -0.05634         *
 * H              18     -0.10508             -0.03636             -0.16497         *
 * H              19      0.05515              0.03228             -0.05322         *
 * H              20     -0.00267              0.08288             -0.01794         *
 * C               1     -0.73745              0.54844              0.34554         *
 * C               2      0.01079             -0.07907              0.06415         *
 * C               3     -1.09840              0.46949             -0.05105         *
 * C               4      0.08365             -0.37229             -0.42731         *
 * C               5      0.32173             -0.27714             -0.00647         *
 * C               6      0.19953             -0.05727              0.05569         *
 * C               7     -0.09692             -0.00800              0.12526         *
 * N               1      2.83705             -1.55893             -0.44238         *
 * O               1      0.67067              0.77450              0.62746         *
 * O               2     -1.26694             -0.59150              0.69274         *
 * O               3     -0.46659              0.18834              1.21443         *
 * Si              1     -0.28346              0.01555             -0.06746         *
 *                                                                                  *
 ************************************************************************************
 EXP precond LBFGS => estimated parameter mu :  2.599       eV/A**2
 LBFGS: finished iteration     0 with enthalpy= -3.19109077E+003 eV
  
 +-----------+-----------------+-----------------+------------+-----+ <-- LBFGS
 | Parameter |      value      |    tolerance    |    units   | OK? | <-- LBFGS
 +-----------+-----------------+-----------------+------------+-----+ <-- LBFGS
 |  dE/ion   |   0.000000E+000 |   2.000000E-005 |         eV | No  | <-- LBFGS
 |  |F|max   |   3.267232E+000 |   5.000000E-002 |       eV/A | No  | <-- LBFGS
 |  |dR|max  |   7.995143E-015 |   2.000000E-003 |          A | No  | <-- LBFGS
 +-----------+-----------------+-----------------+------------+-----+ <-- LBFGS
  

================================================================================
 Starting LBFGS iteration          1 ...
================================================================================
  
 +------------+-------------+-------------+-----------------+ <-- min LBFGS
 |    Step    |   lambda    |   F.delta'  |    enthalpy     | <-- min LBFGS
 +------------+-------------+-------------+-----------------+ <-- min LBFGS
 |  previous  |    0.000000 |    1.981580 |    -3191.090769 | <-- min LBFGS
 +------------+-------------+-------------+-----------------+ <-- min LBFGS
  

--------------------------------------------------------------------------------
 LBFGS: starting iteration         1 with trial guess (lambda=  1.000000)
--------------------------------------------------------------------------------
 
                           -------------------------------
                                     Cell Contents
                           -------------------------------
 
            xxxxxxxxxxxxxxxxxxxxxxxxxxxxxxxxxxxxxxxxxxxxxxxxxxxxxxxxxxxxxxxxx
            x  Element         Atom        Fractional coordinates of atoms  x
            x                 Number           u          v          w      x
            x---------------------------------------------------------------x
            x  H                 1         0.522871   0.407372   0.558588   x
            x  H                 2         0.583022   0.482492   0.549146   x
            x  H                 3         0.412908   0.467918   0.594301   x
            x  H                 4         0.474331   0.542219   0.585358   x
            x  H                 5         0.541343   0.463158   0.499213   x
            x  H                 6         0.479913   0.389561   0.510017   x
            x  H                 7         0.319044   0.456995   0.490202   x
            x  H                 8         0.385604   0.402821   0.468248   x
            x  H                 9         0.424781   0.551584   0.467616   x
            x  H                10         0.346452   0.508611   0.443224   x
            x  H                11         0.688293   0.485795   0.442708   x
            x  H                12         0.493849   0.554247   0.388453   x
            x  H                13         0.538552   0.407024   0.395518   x
            x  H                14         0.369955   0.452795   0.540212   x
            x  H                15         0.429444   0.523406   0.530368   x
            x  H                16         0.572479   0.421949   0.613831   x
            x  H                17         0.633057   0.496315   0.605240   x
            x  H                18         0.586255   0.493382   0.658656   x
            x  H                19         0.460419   0.481455   0.649557   x
            x  H                20         0.519732   0.556416   0.640605   x
            x  C                 1         0.513457   0.461142   0.557680   x
            x  C                 2         0.484598   0.488888   0.587379   x
            x  C                 3         0.467956   0.441590   0.504549   x
            x  C                 4         0.392696   0.449007   0.479812   x
            x  C                 5         0.413838   0.503076   0.456989   x
            x  C                 6         0.561514   0.475054   0.611722   x
            x  C                 7         0.529939   0.503229   0.641815   x
            x  N                 1         0.442142   0.471592   0.533326   x
            x  O                 1         0.537957   0.551820   0.407645   x
            x  O                 2         0.491991   0.416728   0.413664   x
            x  O                 3         0.621257   0.482136   0.454199   x
            x  Si                1         0.516572   0.488573   0.431524   x
            xxxxxxxxxxxxxxxxxxxxxxxxxxxxxxxxxxxxxxxxxxxxxxxxxxxxxxxxxxxxxxxxx
 
 
------------------------------------------------------------------------ <-- SCF
SCF loop      Energy                           Energy gain       Timer   <-- SCF
                                               per atom          (sec)   <-- SCF
------------------------------------------------------------------------ <-- SCF
Initial  -3.20840609E+003                                         86.24  <-- SCF
      1  -3.18837039E+003                   -6.26115748E-001      87.04  <-- SCF
      2  -3.19018604E+003                    5.67389223E-002      88.30  <-- SCF
      3  -3.18974654E+003                   -1.37342146E-002      89.42  <-- SCF
      4  -3.18982063E+003                    2.31521443E-003      90.50  <-- SCF
      5  -3.18985539E+003                    1.08624577E-003      91.61  <-- SCF
      6  -3.18985776E+003                    7.40043408E-005      92.71  <-- SCF
      7  -3.18985874E+003                    3.07353615E-005      93.58  <-- SCF
      8  -3.18985945E+003                    2.20868599E-005      94.36  <-- SCF
      9  -3.18986012E+003                    2.10467923E-005      95.19  <-- SCF
     10  -3.18986044E+003                    1.00376229E-005      95.96  <-- SCF
     11  -3.18986066E+003                    6.80613921E-006      96.73  <-- SCF
     12  -3.18986085E+003                    6.04638512E-006      97.50  <-- SCF
     13  -3.18986098E+003                    3.96622023E-006      98.27  <-- SCF
     14  -3.18986109E+003                    3.58844770E-006      99.05  <-- SCF
     15  -3.18986119E+003                    2.98115627E-006      99.82  <-- SCF
     16  -3.18986127E+003                    2.56572496E-006     100.59  <-- SCF
     17  -3.18986134E+003                    2.10897599E-006     101.37  <-- SCF
     18  -3.18986141E+003                    2.28165556E-006     102.14  <-- SCF
     19  -3.18986147E+003                    1.82068150E-006     102.92  <-- SCF
     20  -3.18986151E+003                    1.26473159E-006     103.71  <-- SCF
     21  -3.18986156E+003                    1.58503406E-006     104.49  <-- SCF
     22  -3.18986160E+003                    1.20178697E-006     105.27  <-- SCF
     23  -3.18986163E+003                    8.24072840E-007     106.06  <-- SCF
     24  -3.18986167E+003                    1.31765789E-006     106.85  <-- SCF
     25  -3.18986168E+003                    3.33734302E-007     107.64  <-- SCF
------------------------------------------------------------------------ <-- SCF
 
Final energy =  -3189.861678631     eV
(energy not corrected for finite basis set)
 
(SEDC) Total Energy Correction : -0.746891E+00 eV

Dispersion corrected final energy* =  -3190.608569842     eV
 
 ************************************** Forces **************************************
 *                                                                                  *
 *                           Cartesian components (eV/A)                            *
 * -------------------------------------------------------------------------------- *
 *                         x                    y                    z              *
 *                                                                                  *
 * H               1      0.12394              0.11758              0.13518         *
 * H               2      0.08446             -0.08280              0.20499         *
 * H               3     -0.07421              0.01494              0.01884         *
 * H               4     -0.04747              0.08827              0.04733         *
 * H               5     -0.24202             -0.27744             -0.25756         *
 * H               6      0.03574              0.02212             -0.08275         *
 * H               7      0.00432              0.03728             -0.10648         *
 * H               8      0.06629             -0.54658             -0.22608         *
 * H               9     -0.00149             -0.18343             -0.05226         *
 * H              10      0.12753              0.03115              0.01768         *
 * H              11     -2.46413             -0.19559              1.33216         *
 * H              12      1.66027             -0.23864              2.46820         *
 * H              13     -1.77663              0.51929              2.27656         *
 * H              14      1.60577              0.72521             -0.47157         *
 * H              15      0.24456             -1.52472              0.19686         *
 * H              16      0.02777             -0.15865             -0.03090         *
 * H              17      0.15210              0.04891             -0.10523         *
 * H              18      0.15014             -0.05762              0.13634         *
 * H              19     -0.13319             -0.04827              0.00023         *
 * H              20      0.00132              0.14250             -0.01091         *
 * C               1      1.25844             -0.68478             -0.15298         *
 * C               2     -0.37379              0.22995              0.17578         *
 * C               3      1.50257             -0.71418             -0.26548         *
 * C               4     -0.55074              0.62312              0.38194         *
 * C               5     -0.88881              0.47078              0.55117         *
 * C               6     -0.09815              0.07154              0.04970         *
 * C               7      0.01549             -0.03602             -0.21295         *
 * N               1     -3.79313              1.70771              0.56404         *
 * O               1     -1.77222             -0.92743             -1.39170         *
 * O               2      1.92475              0.71803             -1.54192         *
 * O               3      0.90123              0.52458             -2.36618         *
 * Si              1      2.32929             -0.41682             -1.28204         *
 *                                                                                  *
 ************************************************************************************
  
 +------------+-------------+-------------+-----------------+ <-- min LBFGS
 |    Step    |   lambda    |   F.delta'  |    enthalpy     | <-- min LBFGS
 +------------+-------------+-------------+-----------------+ <-- min LBFGS
 |  previous  |    0.000000 |    1.981580 |    -3191.090769 | <-- min LBFGS
 | trial step |    1.000000 |   -3.274527 |    -3190.608570 | <-- min LBFGS
 +------------+-------------+-------------+-----------------+ <-- min LBFGS
  

--------------------------------------------------------------------------------
 LBFGS: improving iteration         1 with line minimization (lambda=  0.377005)
--------------------------------------------------------------------------------
 
                           -------------------------------
                                     Cell Contents
                           -------------------------------
 
            xxxxxxxxxxxxxxxxxxxxxxxxxxxxxxxxxxxxxxxxxxxxxxxxxxxxxxxxxxxxxxxxx
            x  Element         Atom        Fractional coordinates of atoms  x
            x                 Number           u          v          w      x
            x---------------------------------------------------------------x
            x  H                 1         0.523547   0.407151   0.558950   x
            x  H                 2         0.583969   0.482606   0.549473   x
            x  H                 3         0.412904   0.468213   0.594715   x
            x  H                 4         0.474383   0.542596   0.585783   x
            x  H                 5         0.541954   0.463132   0.499161   x
            x  H                 6         0.480370   0.389199   0.509936   x
            x  H                 7         0.317798   0.457638   0.490145   x
            x  H                 8         0.384756   0.403224   0.468073   x
            x  H                 9         0.423119   0.551900   0.467515   x
            x  H                10         0.344706   0.509204   0.442923   x
            x  H                11         0.684078   0.483828   0.441156   x
            x  H                12         0.496481   0.550798   0.388844   x
            x  H                13         0.541833   0.408617   0.395518   x
            x  H                14         0.368817   0.454159   0.540373   x
            x  H                15         0.427079   0.523371   0.530710   x
            x  H                16         0.572882   0.422154   0.614352   x
            x  H                17         0.633583   0.496649   0.605743   x
            x  H                18         0.587098   0.493701   0.659358   x
            x  H                19         0.460713   0.481616   0.650143   x
            x  H                20         0.520177   0.556844   0.641140   x
            x  C                 1         0.514448   0.460868   0.557830   x
            x  C                 2         0.484685   0.489145   0.587745   x
            x  C                 3         0.469199   0.441410   0.504619   x
            x  C                 4         0.391630   0.449896   0.479995   x
            x  C                 5         0.412007   0.503778   0.456727   x
            x  C                 6         0.561522   0.475441   0.612162   x
            x  C                 7         0.530554   0.503445   0.642331   x
            x  N                 1         0.436815   0.473429   0.533772   x
            x  O                 1         0.537864   0.547988   0.406886   x
            x  O                 2         0.498574   0.418346   0.412650   x
            x  O                 3         0.620415   0.480260   0.451803   x
            x  Si                1         0.518262   0.487746   0.430833   x
            xxxxxxxxxxxxxxxxxxxxxxxxxxxxxxxxxxxxxxxxxxxxxxxxxxxxxxxxxxxxxxxxx
 
 
------------------------------------------------------------------------ <-- SCF
SCF loop      Energy                           Energy gain       Timer   <-- SCF
                                               per atom          (sec)   <-- SCF
------------------------------------------------------------------------ <-- SCF
Initial  -3.20042294E+003                                        109.04  <-- SCF
      1  -3.19032738E+003                   -3.15486145E-001     109.86  <-- SCF
      2  -3.19067162E+003                    1.07572273E-002     110.96  <-- SCF
      3  -3.19045969E+003                   -6.62282801E-003     111.96  <-- SCF
      4  -3.19052435E+003                    2.02066947E-003     113.07  <-- SCF
      5  -3.19054444E+003                    6.27852401E-004     114.11  <-- SCF
      6  -3.19054502E+003                    1.83142745E-005     114.94  <-- SCF
      7  -3.19054525E+003                    7.07915710E-006     115.70  <-- SCF
      8  -3.19054539E+003                    4.28652092E-006     116.47  <-- SCF
      9  -3.19054549E+003                    3.05196374E-006     117.24  <-- SCF
     10  -3.19054568E+003                    5.92970953E-006     118.00  <-- SCF
     11  -3.19054577E+003                    3.09374442E-006     118.78  <-- SCF
     12  -3.19054606E+003                    8.88470748E-006     119.55  <-- SCF
     13  -3.19054616E+003                    3.08156772E-006     120.32  <-- SCF
     14  -3.19054635E+003                    5.97406682E-006     121.09  <-- SCF
     15  -3.19054641E+003                    2.00104783E-006     121.86  <-- SCF
     16  -3.19054654E+003                    3.94302121E-006     122.64  <-- SCF
     17  -3.19054656E+003                    6.81876840E-007     123.45  <-- SCF
     18  -3.19054664E+003                    2.34492945E-006     124.24  <-- SCF
     19  -3.19054666E+003                    7.26548326E-007     125.01  <-- SCF
     20  -3.19054671E+003                    1.44321296E-006     125.79  <-- SCF
     21  -3.19054672E+003                    5.77220134E-007     126.58  <-- SCF
     22  -3.19054675E+003                    8.66978183E-007     127.37  <-- SCF
------------------------------------------------------------------------ <-- SCF
 
Final energy =  -3190.546751272     eV
(energy not corrected for finite basis set)
 
(SEDC) Total Energy Correction : -0.746702E+00 eV

Dispersion corrected final energy* =  -3191.293452826     eV
 
 ************************************** Forces **************************************
 *                                                                                  *
 *                           Cartesian components (eV/A)                            *
 * -------------------------------------------------------------------------------- *
 *                         x                    y                    z              *
 *                                                                                  *
 * H               1     -0.03990              0.13711             -0.04673         *
 * H               2     -0.12899             -0.06415              0.00591         *
 * H               3     -0.02335              0.00118             -0.01834         *
 * H               4     -0.02677             -0.00459             -0.01694         *
 * H               5     -0.20699             -0.09650             -0.05689         *
 * H               6     -0.04344              0.16440              0.09201         *
 * H               7      0.03317              0.02137              0.03508         *
 * H               8      0.05021             -0.13763              0.03765         *
 * H               9      0.04417             -0.03766             -0.10240         *
 * H              10      0.10595             -0.01300              0.05758         *
 * H              11     -0.65409             -0.04207              0.35314         *
 * H              12      0.49592             -0.10133              0.68025         *
 * H              13     -0.54201              0.16267              0.65187         *
 * H              14      0.37657              0.20067             -0.10882         *
 * H              15      0.02712             -0.31438              0.06359         *
 * H              16     -0.01974             -0.03543             -0.05198         *
 * H              17      0.00124              0.00478             -0.07115         *
 * H              18     -0.00722             -0.04382             -0.05106         *
 * H              19     -0.00592              0.01052             -0.04120         *
 * H              20      0.01191             -0.00204             -0.00345         *
 * C               1     -0.04133              0.07054              0.11290         *
 * C               2     -0.12829              0.08285              0.08878         *
 * C               3     -0.14383              0.04157             -0.04748         *
 * C               4     -0.13060             -0.02679             -0.17174         *
 * C               5     -0.06872              0.00229              0.21775         *
 * C               6      0.10688             -0.04790              0.06949         *
 * C               7     -0.05586              0.03155             -0.01613         *
 * N               1      0.35112             -0.12708             -0.09905         *
 * O               1     -0.44629             -0.00164             -0.28553         *
 * O               2      0.08741             -0.00771             -0.30454         *
 * O               3      0.18908              0.35007             -0.38600         *
 * Si              1      0.83260             -0.17785             -0.58655         *
 *                                                                                  *
 ************************************************************************************
  
 +------------+-------------+-------------+-----------------+ <-- min LBFGS
 |    Step    |   lambda    |   F.delta'  |    enthalpy     | <-- min LBFGS
 +------------+-------------+-------------+-----------------+ <-- min LBFGS
 |  previous  |    0.000000 |    1.981580 |    -3191.090769 | <-- min LBFGS
 | trial step |    1.000000 |   -3.274527 |    -3190.608570 | <-- min LBFGS
 |  line step |    0.377005 |   -0.197510 |    -3191.293453 | <-- min LBFGS
 +------------+-------------+-------------+-----------------+ <-- min LBFGS
  
 LBFGS: finished iteration     1 with enthalpy= -3.19129345E+003 eV
  
 +-----------+-----------------+-----------------+------------+-----+ <-- LBFGS
 | Parameter |      value      |    tolerance    |    units   | OK? | <-- LBFGS
 +-----------+-----------------+-----------------+------------+-----+ <-- LBFGS
 |  dE/ion   |   6.333875E-003 |   2.000000E-005 |         eV | No  | <-- LBFGS
 |  |F|max   |   1.033871E+000 |   5.000000E-002 |       eV/A | No  | <-- LBFGS
 |  |dR|max  |   6.958879E-002 |   2.000000E-003 |          A | No  | <-- LBFGS
 +-----------+-----------------+-----------------+------------+-----+ <-- LBFGS
  

================================================================================
 Starting LBFGS iteration          2 ...
================================================================================
  
 +------------+-------------+-------------+-----------------+ <-- min LBFGS
 |    Step    |   lambda    |   F.delta'  |    enthalpy     | <-- min LBFGS
 +------------+-------------+-------------+-----------------+ <-- min LBFGS
 |  previous  |    0.000000 |    0.718191 |    -3191.293453 | <-- min LBFGS
 +------------+-------------+-------------+-----------------+ <-- min LBFGS
  

--------------------------------------------------------------------------------
 LBFGS: starting iteration         2 with trial guess (lambda=  1.000000)
--------------------------------------------------------------------------------
 
                           -------------------------------
                                     Cell Contents
                           -------------------------------
 
            xxxxxxxxxxxxxxxxxxxxxxxxxxxxxxxxxxxxxxxxxxxxxxxxxxxxxxxxxxxxxxxxx
            x  Element         Atom        Fractional coordinates of atoms  x
            x                 Number           u          v          w      x
            x---------------------------------------------------------------x
            x  H                 1         0.523401   0.407569   0.558416   x
            x  H                 2         0.583273   0.482263   0.549021   x
            x  H                 3         0.412880   0.467990   0.594129   x
            x  H                 4         0.474280   0.542283   0.585198   x
            x  H                 5         0.541009   0.462755   0.498889   x
            x  H                 6         0.480278   0.389635   0.509841   x
            x  H                 7         0.319312   0.456908   0.490067   x
            x  H                 8         0.385928   0.402210   0.468096   x
            x  H                 9         0.425141   0.551291   0.467523   x
            x  H                10         0.347102   0.508512   0.443286   x
            x  H                11         0.679592   0.486779   0.442669   x
            x  H                12         0.498691   0.552101   0.391148   x
            x  H                13         0.534491   0.409489   0.397728   x
            x  H                14         0.372269   0.453548   0.539845   x
            x  H                15         0.429887   0.522213   0.530275   x
            x  H                16         0.572664   0.421730   0.613565   x
            x  H                17         0.633384   0.496259   0.604943   x
            x  H                18         0.586477   0.493182   0.658377   x
            x  H                19         0.460382   0.481348   0.649248   x
            x  H                20         0.519846   0.556403   0.640321   x
            x  C                 1         0.514226   0.461003   0.557510   x
            x  C                 2         0.484434   0.489020   0.587252   x
            x  C                 3         0.468617   0.441330   0.504318   x
            x  C                 4         0.392592   0.448939   0.479681   x
            x  C                 5         0.413838   0.503081   0.457079   x
            x  C                 6         0.561746   0.474960   0.611504   x
            x  C                 7         0.530001   0.503140   0.641506   x
            x  N                 1         0.441667   0.471938   0.533163   x
            x  O                 1         0.538149   0.549850   0.408539   x
            x  O                 2         0.492407   0.418649   0.414219   x
            x  O                 3         0.617911   0.483693   0.452967   x
            x  Si                1         0.520350   0.488279   0.431042   x
            xxxxxxxxxxxxxxxxxxxxxxxxxxxxxxxxxxxxxxxxxxxxxxxxxxxxxxxxxxxxxxxxx
 
 
------------------------------------------------------------------------ <-- SCF
SCF loop      Energy                           Energy gain       Timer   <-- SCF
                                               per atom          (sec)   <-- SCF
------------------------------------------------------------------------ <-- SCF
Initial  -3.21025335E+003                                        128.73  <-- SCF
      1  -3.19011444E+003                   -6.29341023E-001     129.55  <-- SCF
      2  -3.19055377E+003                    1.37291111E-002     130.72  <-- SCF
      3  -3.19040776E+003                   -4.56300501E-003     131.72  <-- SCF
      4  -3.19051076E+003                    3.21876563E-003     132.73  <-- SCF
      5  -3.19051619E+003                    1.69886462E-004     133.89  <-- SCF
      6  -3.19051720E+003                    3.13699440E-005     134.79  <-- SCF
      7  -3.19051714E+003                   -1.63338038E-006     135.58  <-- SCF
      8  -3.19051694E+003                   -6.33004345E-006     136.46  <-- SCF
      9  -3.19051692E+003                   -5.58568768E-007     137.22  <-- SCF
     10  -3.19051702E+003                    3.14057682E-006     138.02  <-- SCF
     11  -3.19051737E+003                    1.07559982E-005     138.81  <-- SCF
     12  -3.19051764E+003                    8.54435626E-006     139.58  <-- SCF
     13  -3.19051796E+003                    1.00463282E-005     140.35  <-- SCF
     14  -3.19051816E+003                    6.19114680E-006     141.12  <-- SCF
     15  -3.19051830E+003                    4.29750065E-006     141.89  <-- SCF
     16  -3.19051840E+003                    3.14585166E-006     142.67  <-- SCF
     17  -3.19051850E+003                    3.02396204E-006     143.44  <-- SCF
     18  -3.19051856E+003                    2.10504821E-006     144.23  <-- SCF
     19  -3.19051863E+003                    2.14463473E-006     145.00  <-- SCF
     20  -3.19051867E+003                    1.07164504E-006     145.79  <-- SCF
     21  -3.19051870E+003                    8.82430549E-007     146.57  <-- SCF
------------------------------------------------------------------------ <-- SCF
 
Final energy =  -3190.518695081     eV
(energy not corrected for finite basis set)
 
(SEDC) Total Energy Correction : -0.752445E+00 eV

Dispersion corrected final energy* =  -3191.271139725     eV
 
 ************************************** Forces **************************************
 *                                                                                  *
[...]
 * H              20      0.00050             -0.00044             -0.00180         *
 * C               1     -0.00078              0.00022             -0.00247         *
 * C               2      0.00164              0.00048              0.00359         *
 * C               3     -0.00130              0.00495              0.00042         *
 * C               4     -0.00283             -0.00389              0.00235         *
 * C               5     -0.00448             -0.00084              0.00264         *
 * C               6      0.00077             -0.00119              0.00174         *
 * C               7     -0.00000             -0.00075              0.00305         *
 * N               1      0.00166             -0.00040              0.00145         *
 * O               1     -0.00687             -0.00811              0.01136         *
 * O               2     -0.00096              0.00013             -0.00358         *
 * O               3      0.00935             -0.00173             -0.00198         *
 * Si              1      0.00504              0.01666             -0.01059         *
 *                                                                                  *
 ************************************************************************************
 
 Pseudo atomic calculation performed for H 1s1
 
 Converged in 13 iterations to a total energy of -12.4790 eV
 
 Pseudo atomic calculation performed for C 2s2 2p2
 
 Converged in 17 iterations to a total energy of -148.5208 eV
 
 Pseudo atomic calculation performed for N 2s2 2p3
 
 Converged in 21 iterations to a total energy of -268.1820 eV
 
 Pseudo atomic calculation performed for O 2s2 2p4
 
 Converged in 23 iterations to a total energy of -432.6536 eV
 
 Pseudo atomic calculation performed for Si 3s2 3p2
 
 Converged in 11 iterations to a total energy of -165.0683 eV
Charge spilling parameter for spin component 1 = 1.55%
 
            Orbital Populations       
     Ion    Atom   Orbital             Charge
  -------------------------------------------
      H     1      S                    0.692
      H     2      S                    0.682
      H     3      S                    0.737
      H     4      S                    0.724
      H     5      S                    0.689
      H     6      S                    0.685
      H     7      S                    0.734
      H     8      S                    0.675
      H     9      S                    0.767
      H    10      S                    0.694
      H    11      S                    0.466
      H    12      S                    0.456
      H    13      S                    0.459
      H    14      S                    0.517
      H    15      S                    0.516
      H    16      S                    0.730
      H    17      S                    0.728
      H    18      S                    0.699
      H    19      S                    0.727
      H    20      S                    0.726
      C     1      S                    1.301
      C     1      Px                   1.005
      C     1      Py                   1.213
      C     1      Pz                   0.885
      C     2      S                    1.299
      C     2      Px                   1.118
      C     2      Py                   1.161
      C     2      Pz                   0.946
      C     3      S                    1.301
      C     3      Px                   1.205
      C     3      Py                   1.003
      C     3      Pz                   0.895
      C     4      S                    1.303
      C     4      Px                   1.090
      C     4      Py                   1.110
      C     4      Pz                   1.038
      C     5      S                    1.404
      C     5      Px                   1.285
      C     5      Py                   1.086
      C     5      Pz                   1.183
      C     6      S                    1.305
      C     6      Px                   1.075
      C     6      Py                   1.173
      C     6      Pz                   0.957
      C     7      S                    1.400
      C     7      Px                   1.196
      C     7      Py                   1.175
      C     7      Pz                   1.025
      N     1      S                    1.583
      N     1      Px                   1.369
      N     1      Py                   1.372
      N     1      Pz                   1.297
      O     1      S                    1.855
      O     1      Px                   1.847
      O     1      Py                   1.819
      O     1      Pz                   1.569
      O     2      S                    1.853
      O     2      Px                   1.814
      O     2      Py                   1.730
      O     2      Pz                   1.702
      O     3      S                    1.857
      O     3      Px                   1.513
      O     3      Py                   1.903
      O     3      Pz                   1.837
     Si     1      S                    0.725
     Si     1      Px                   0.421
     Si     1      Py                   0.334
     Si     1      Pz                   0.362
  -------------------------------------------
                           Total:      74.000
  -------------------------------------------
 
     Atomic Populations (Mulliken)
     -----------------------------
Species          Ion     s       p       d       f      Total   Charge (e)
==========================================================================
  H               1     0.692   0.000   0.000   0.000   0.692     0.308
  H               2     0.682   0.000   0.000   0.000   0.682     0.318
  H               3     0.737   0.000   0.000   0.000   0.737     0.263
  H               4     0.724   0.000   0.000   0.000   0.724     0.276
  H               5     0.689   0.000   0.000   0.000   0.689     0.311
  H               6     0.685   0.000   0.000   0.000   0.685     0.315
  H               7     0.734   0.000   0.000   0.000   0.734     0.266
  H               8     0.675   0.000   0.000   0.000   0.675     0.325
  H               9     0.767   0.000   0.000   0.000   0.767     0.233
  H              10     0.694   0.000   0.000   0.000   0.694     0.306
  H              11     0.466   0.000   0.000   0.000   0.466     0.534
  H              12     0.456   0.000   0.000   0.000   0.456     0.544
  H              13     0.459   0.000   0.000   0.000   0.459     0.541
  H              14     0.517   0.000   0.000   0.000   0.517     0.483
  H              15     0.516   0.000   0.000   0.000   0.516     0.484
  H              16     0.730   0.000   0.000   0.000   0.730     0.270
  H              17     0.728   0.000   0.000   0.000   0.728     0.272
  H              18     0.699   0.000   0.000   0.000   0.699     0.301
  H              19     0.727   0.000   0.000   0.000   0.727     0.273
  H              20     0.726   0.000   0.000   0.000   0.726     0.274
  C               1     1.301   3.103   0.000   0.000   4.404    -0.404
  C               2     1.299   3.226   0.000   0.000   4.525    -0.525
  C               3     1.301   3.102   0.000   0.000   4.403    -0.403
  C               4     1.303   3.238   0.000   0.000   4.541    -0.541
  C               5     1.404   3.554   0.000   0.000   4.958    -0.958
  C               6     1.305   3.205   0.000   0.000   4.510    -0.510
  C               7     1.400   3.396   0.000   0.000   4.796    -0.796
  N               1     1.583   4.038   0.000   0.000   5.621    -0.621
  O               1     1.855   5.236   0.000   0.000   7.091    -1.091
  O               2     1.853   5.246   0.000   0.000   7.099    -1.099
  O               3     1.857   5.253   0.000   0.000   7.110    -1.110
  Si              1     0.725   1.116   0.000   0.000   1.841     2.159
==========================================================================
 
                 Bond                   Population      Length (A)
======================================================================
              H 13 -- O 2                    0.53        0.96877
              H 12 -- O 1                    0.53        0.96916
              H 11 -- O 3                    0.53        0.97021
              H 14 -- N 1                    0.68        1.02985
              H 15 -- N 1                    0.69        1.03013
              H 6  -- C 3                    0.85        1.09718
              H 18 -- C 7                    0.81        1.09749
              H 2  -- C 1                    0.84        1.09779
              H 1  -- C 1                    0.86        1.09792
              H 5  -- C 3                    0.86        1.09839
              H 20 -- C 7                    0.81        1.09894
              H 8  -- C 4                    0.83        1.09907
              H 19 -- C 7                    0.81        1.09930
              H 16 -- C 6                    0.84        1.10175
              H 10 -- C 5                    0.82        1.10180
              H 17 -- C 6                    0.84        1.10199
              H 4  -- C 2                    0.84        1.10208
              H 3  -- C 2                    0.85        1.10417
              H 9  -- C 5                    0.82        1.10446
              H 7  -- C 4                    0.84        1.10449
               C 3 -- N 1                    0.50        1.51428
               C 1 -- N 1                    0.51        1.51458
               C 1 -- C 2                    0.71        1.51824
               C 3 -- C 4                    0.70        1.52052
               C 6 -- C 7                    0.65        1.52754
               C 2 -- C 6                    0.68        1.53419
               C 4 -- C 5                    0.65        1.54040
               O 1 -- Si 1                   0.52        1.64189
               O 2 -- Si 1                   0.50        1.64533
              H 14 -- H 15                  -0.12        1.64748
               O 3 -- Si 1                   0.47        1.66072
              H 9  -- H 10                  -0.10        1.75057
              H 7  -- H 8                   -0.11        1.76163
              H 16 -- H 17                  -0.12        1.76554
              H 18 -- H 19                  -0.10        1.77170
              H 18 -- H 20                  -0.10        1.77516
              H 3  -- H 4                   -0.12        1.77609
              H 19 -- H 20                  -0.10        1.77798
              H 1  -- H 2                   -0.11        1.77953
              H 5  -- H 6                   -0.10        1.79433
               C 5 -- Si 1                   0.60        1.88214
              H 14 -- C 3                   -0.13        2.08953
              H 15 -- C 3                   -0.12        2.08985
              H 6  -- N 1                   -0.12        2.09103
              H 14 -- C 1                   -0.12        2.09408
              H 15 -- C 1                   -0.13        2.09572
              H 1  -- N 1                   -0.11        2.10122
              H 5  -- N 1                   -0.11        2.10191
              H 2  -- N 1                   -0.11        2.10208
              H 8  -- C 3                   -0.12        2.11824
              H 3  -- C 1                   -0.14        2.14988
              H 7  -- C 3                   -0.14        2.15064
              H 16 -- C 2                   -0.14        2.15643
              H 10 -- C 4                   -0.12        2.15738
              H 17 -- C 2                   -0.14        2.15999
              H 8  -- C 5                   -0.13        2.16279
              H 16 -- C 7                   -0.13        2.16421
              H 3  -- C 6                   -0.12        2.16510
              H 1  -- C 2                   -0.13        2.16632
              H 17 -- C 7                   -0.13        2.17044
              H 4  -- C 6                   -0.12        2.17061
              H 4  -- C 1                   -0.13        2.17325
              H 18 -- C 6                   -0.12        2.17472
              H 19 -- C 6                   -0.12        2.18018
              H 5  -- C 4                   -0.11        2.18235
              H 20 -- C 6                   -0.12        2.18318
              H 6  -- C 4                   -0.12        2.18891
              H 2  -- C 2                   -0.11        2.19216
              H 9  -- H 15                  -0.02        2.19278
              H 7  -- C 5                   -0.13        2.19829
              H 9  -- C 4                   -0.11        2.21140
              H 11 -- Si 1                  -0.14        2.26822
              H 12 -- Si 1                  -0.13        2.28595
              H 2  -- H 15                  -0.05        2.29266
              H 13 -- Si 1                  -0.13        2.30068
              H 6  -- H 14                  -0.04        2.35066
              H 5  -- O 3                    0.00        2.35740
              H 1  -- H 6                   -0.02        2.37241
              H 3  -- H 14                  -0.01        2.38005
              H 6  -- H 8                   -0.04        2.41522
              H 10 -- Si 1                  -0.12        2.44321
              H 7  -- H 10                  -0.04        2.44996
              H 5  -- H 15                  -0.03        2.45516
              H 1  -- H 16                  -0.01        2.45833
              H 9  -- Si 1                  -0.13        2.47610
              H 7  -- H 14                  -0.00        2.49018
              H 4  -- H 17                  -0.04        2.49629
              H 16 -- H 18                  -0.03        2.50040
              H 1  -- H 3                   -0.04        2.50277
               C 4 -- N 1                   -0.13        2.50368
               C 1 -- C 6                   -0.15        2.50632
              H 17 -- H 18                  -0.03        2.50999
              H 8  -- H 10                  -0.02        2.52104
               C 2 -- N 1                   -0.13        2.52174
              H 3  -- H 16                  -0.03        2.52365
              H 16 -- H 19                  -0.03        2.52461
               C 1 -- C 3                   -0.14        2.53671
              H 17 -- H 20                  -0.03        2.53707
               C 2 -- C 7                   -0.15        2.54722
              H 2  -- H 4                   -0.03        2.54797
              H 6  -- H 7                   -0.02        2.55368
              H 1  -- H 14                  -0.01        2.55518
              H 3  -- H 19                  -0.01        2.56707
              H 1  -- C 3                   -0.06        2.56748
               C 3 -- C 5                   -0.15        2.57001
              H 5  -- H 8                   -0.01        2.57662
              H 14 -- C 2                   -0.05        2.57852
              H 2  -- H 5                   -0.01        2.59719
              H 2  -- H 17                  -0.01        2.60882
              H 7  -- H 9                   -0.03        2.61339
              H 15 -- C 4                   -0.04        2.63850
              H 8  -- O 2                   -0.00        2.63895
              H 4  -- H 20                  -0.01        2.63986
               O 1 -- O 3                   -0.08        2.64159
              H 1  -- H 5                   -0.01        2.66441
              H 5  -- C 1                   -0.04        2.66446
              H 7  -- N 1                   -0.04        2.67929
              H 16 -- C 1                   -0.05        2.68083
              H 3  -- N 1                   -0.03        2.74021
              H 14 -- C 4                   -0.03        2.74401
              H 1  -- C 6                   -0.04        2.74793
               O 1 -- O 2                   -0.07        2.74989
              H 5  -- C 5                   -0.04        2.75075
              H 3  -- C 7                   -0.04        2.75293
              H 17 -- C 1                   -0.04        2.75356
              H 11 -- O 1                   -0.01        2.75534
              H 6  -- C 1                   -0.03        2.76052
               O 2 -- O 3                   -0.07        2.76325
               C 5 -- O 2                   -0.11        2.76856
              H 4  -- H 15                  -0.00        2.77763
              H 15 -- C 5                   -0.01        2.77977
              H 4  -- N 1                   -0.02        2.79952
              H 4  -- C 7                   -0.03        2.81159
              H 2  -- C 6                   -0.03        2.81315
              H 19 -- C 2                   -0.04        2.81490
              H 20 -- C 2                   -0.04        2.82212
               C 5 -- O 3                   -0.10        2.82534
              H 4  -- H 14                  -0.00        2.84206
              H 7  -- H 15                  -0.01        2.84862
              H 9  -- C 3                   -0.03        2.85522
               C 4 -- Si 1                  -0.13        2.88100
              H 2  -- C 3                   -0.02        2.88344
              H 15 -- C 2                   -0.01        2.89182
              H 9  -- N 1                   -0.02        2.90349
              H 1  -- H 15                   0.03        2.93899
              H 2  -- H 14                   0.03        2.94037
              H 5  -- Si 1                  -0.03        2.94443
              H 12 -- O 2                   -0.01        2.94696
              H 6  -- H 15                   0.03        2.94726
              H 5  -- H 14                   0.03        2.95587
               C 5 -- O 1                   -0.08        2.97091
              H 9  -- O 3                   -0.01        2.99363
              H 8  -- Si 1                  -0.06        2.99481
              H 13 -- O 1                   -0.01        2.99856
======================================================================
 
 
     Hirshfeld Analysis
     ------------------
Species   Ion     Hirshfeld Charge (e)
======================================
  H        1                 0.07
  H        2                 0.07
  H        3                 0.05
  H        4                 0.05
  H        5                 0.06
  H        6                 0.07
  H        7                 0.04
  H        8                 0.06
  H        9                 0.04
  H       10                 0.06
  H       11                 0.17
  H       12                 0.18
  H       13                 0.18
  H       14                 0.17
  H       15                 0.17
  H       16                 0.04
  H       17                 0.04
  H       18                 0.06
  H       19                 0.05
  H       20                 0.05
  C        1                 0.01
  C        2                -0.06
  C        3                 0.01
  C        4                -0.06
  C        5                -0.15
  C        6                -0.05
  C        7                -0.10
  N        1                 0.03
  O        1                -0.28
  O        2                -0.27
  O        3                -0.28
  Si       1                 0.47
======================================
 

Writing analysis data to Conf_0032.castep_bin

Writing model to Conf_0032.check
 
 A BibTeX formatted list of references used in this run has been written to 
 Conf_0032.bib
 
Initialisation time =     24.80 s
Calculation time    =    862.32 s
Finalisation time   =      1.08 s
Total time          =    888.20 s
Peak Memory Use     = 7910632 kB
 
Overall parallel efficiency rating: Satisfactory (67%)
 
Data was distributed by:-
G-vector (48-way); efficiency rating: Satisfactory (67%)
High Water Mark     = 1890356 kB
