 Job started on host drago31040141.mgmt.cc.csic.es
 at Sun Mar 31 01:08:56 2024

 +-------------------------------------------------+
 |                                                 |
 |      CCC   AA    SSS  TTTTT  EEEEE  PPPP        |
 |     C     A  A  S       T    E      P   P       |
 |     C     AAAA   SS     T    EEE    PPPP        |
 |     C     A  A     S    T    E      P           |
 |      CCC  A  A  SSS     T    EEEEE  P           |
 |                                                 |
 +-------------------------------------------------+
 |                                                 |
 | Materials Studio CASTEP version 2024            |
 | Ab Initio Total Energy Program                  |
 |                                                 |
 | Authors:                                        |
 | M. Segall, M. Probert, C. Pickard, P. Hasnip,   |
 | S. Clark, K. Refson, J. R. Yates,               |
 | A. Bartok-Partay, M. Payne                      |
 |                                                 |
 | Contributors:                                   |
 | P. Lindan, P. Haynes, J. White, V. Milman,      |
 | N. Govind, M. Gibson, P. Tulip, V. Cocula,      |
 | B. Montanari, D. Quigley, M. Glover,            |
 | L. Bernasconi, A. Perlov, M. Plummer,           |
 | E. McNellis, J. Meyer, J. Gale, D. Jochym       |
 | J. Aarons, B. Walker, R. Gillen, D. Jones       |
 | T. Green, I. J. Bush, C. J. Armstrong,          |
 | E. J. Higgins, E. L. Brown, M. S. McFly,        |
 | J. Wilkins, B-C. Shih, P. J. P. Byrne,          |
 | R. J. Maurer, J. C. Womack, J. Dziedzic,        |
 | L. LeBlanc, T. K. Stenczel, J. Kermode,         |
 | S. Sturniolo, B. Shi, B. Durham, M. Evans,      |
 | M. J. Smith, A. Tamerus, Z. Hawkhead,           |
 | V. Ravindran, T. Hollins, S. A. Joyce,          |
 | R. T. Strong, A. M. Reilly                      |
 |                                                 |
 | Copyright (c) 2000 - 2023                       |
 |                                                 |
 | Please cite                                     |
 |                                                 |
 |     "First principles methods using CASTEP"     |
 |                                                 |
 |         Zeitschrift fuer Kristallographie       |
 |           220(5-6) pp. 567-570 (2005)           |
 |                                                 |
 | S. J. Clark, M. D. Segall, C. J. Pickard,       |
 | P. J. Hasnip, M. J. Probert, K. Refson,         |
 | M. C. Payne                                     |
 |                                                 |
 |       in all publications arising from          |
 |              your use of CASTEP                 |
 |                                                 |
 +-------------------------------------------------+
 |                                                 |
 |              http://www.castep.org              |
 |                                                 |
 +-------------------------------------------------+
 
 
 This version was compiled for x86_64-rhel7-intel19.0 on Oct 24 2023
 Code version:    a9f326b
 Intel(R) Math Kernel Library Version 2019.0.4 
 Fundamental constants values: CODATA 2018
 
License checkout of MS_castep successful
 
 
 Atomic calculation performed for H: 1s1
 
 Converged in 41 iterations to an ae energy of -12.488 eV
 
 Identity difference: 2.63E-05
 
   ============================================================                
   | Pseudopotential Report - Date of generation 31-03-2024   |                
   ------------------------------------------------------------                
   | Element: H Ionic charge:  1.00 Level of theory: PBE      |                
   | Atomic Solver: Koelling-Harmon                           |                
   |                                                          |                
   |               Reference Electronic Structure             |                
   |         Orbital         Occupation         Energy        |                
   |            1s              1.000           -0.239        |                
   |                                                          |                
   |                 Pseudopotential Definition               |                
   |        Beta     l      e      Rc     scheme   norm       |                
   |          1      0   -0.239   0.599     qc      0         |                
   |          2      0    0.250   0.599     qc      0         |                
   |         loc     1    0.000   0.599     pn      0         |                
   |                                                          |                
   | Augmentation charge Rinner = 0.421                       |                
   | No partial core correction                               |                
   ------------------------------------------------------------                
   | "1|0.6|9|10|15|10UU(qc=8)[]"                             |                
   ------------------------------------------------------------                
   |      Author: Chris J. Pickard, Cambridge University      |                
   ============================================================                
 
 Doing a self consistent calculation for the test configuration
 
 Atomic calculation performed for H: 1s1
 
 Converged in 41 iterations to an ae energy of -12.488 eV
 
 ---------------------------------------
 AE eigenvalue nl 10 =       -0.23860176
 ---------------------------------------
 PS eigenvalue nl 10 =       -0.23857601
 ---------------------------------------
 Maximum eigenvalue error:   2.57E-05
 
 Derived cutoff energies: C=   1 M=   6 F=  10 E=  20
 
 Checking for ghost states up to   1.51185 Ha
 
 No Ghost States Identified
 
 ***************************************
 
 Atomic calculation performed for C: 1s2 2s2 2p2
 
 Converged in 54 iterations to an ae energy of -1027.632 eV
 
 Identity difference: 2.37E-04
 
   ============================================================                
   | Pseudopotential Report - Date of generation 31-03-2024   |                
   ------------------------------------------------------------                
   | Element: C Ionic charge:  4.00 Level of theory: PBE      |                
   | Atomic Solver: Koelling-Harmon                           |                
   |                                                          |                
   |               Reference Electronic Structure             |                
   |         Orbital         Occupation         Energy        |                
   |            2s              2.000           -0.505        |                
   |            2p              2.000           -0.194        |                
   |                                                          |                
   |                 Pseudopotential Definition               |                
   |        Beta     l      e      Rc     scheme   norm       |                
   |          1      0   -0.505   1.395     qc      0         |                
   |          2      0    0.250   1.395     qc      0         |                
   |          3      1   -0.194   1.395     qc      0         |                
   |          4      1    0.250   1.395     qc      0         |                
   |         loc     2    0.000   1.395     pn      0         |                
   |                                                          |                
   | Augmentation charge Rinner = 0.983                       |                
   | Partial core correction Rc = 0.983                       |                
   ------------------------------------------------------------                
   | "2|1.4|11|12|14.7|20UU:21UU(qc=7)[]"                     |                
   ------------------------------------------------------------                
   |      Author: Chris J. Pickard, Cambridge University      |                
   ============================================================                
 
 Doing a self consistent calculation for the test configuration
 
 Atomic calculation performed for C: 1s2 2s2 2p2
 
 Converged in 54 iterations to an ae energy of -1027.632 eV
 
 ---------------------------------------
 AE eigenvalue nl 10 =      -10.04653081
 AE eigenvalue nl 20 =       -0.50533429
 AE eigenvalue nl 21 =       -0.19423807
 ---------------------------------------
 PS eigenvalue nl 20 =       -0.50531853
 PS eigenvalue nl 21 =       -0.19422214
 ---------------------------------------
 Maximum eigenvalue error:   1.59E-05
 
 Derived cutoff energies: C=   6 M=  10 F=  12 E=  16
 
 Checking for ghost states up to   1.47183 Ha
 
 No Ghost States Identified
 
 ***************************************
 
 Atomic calculation performed for N: 1s2 2s2 2p3
 
 Converged in 55 iterations to an ae energy of -1481.742 eV
 
 Identity difference: 2.27E-04
 
   ============================================================                
   | Pseudopotential Report - Date of generation 31-03-2024   |                
   ------------------------------------------------------------                
   | Element: N Ionic charge:  5.00 Level of theory: PBE      |                
   | Atomic Solver: Koelling-Harmon                           |                
   |                                                          |                
   |               Reference Electronic Structure             |                
   |         Orbital         Occupation         Energy        |                
   |            2s              2.000           -0.683        |                
   |            2p              3.000           -0.261        |                
   |                                                          |                
   |                 Pseudopotential Definition               |                
   |        Beta     l      e      Rc     scheme   norm       |                
   |          1      0   -0.683   1.100     qc      0         |                
   |          2      0    0.250   1.100     qc      0         |                
   |          3      1   -0.261   1.100     qc      0         |                
   |          4      1    0.250   1.100     qc      0         |                
   |         loc     2    0.000   1.100     pn      0         |                
   |                                                          |                
   | Augmentation charge Rinner = 0.769                       |                
   | Partial core correction Rc = 0.769                       |                
   ------------------------------------------------------------                
   | "2|1.1|12|16|19|20UU:21UU(qc=7)[]"                       |                
   ------------------------------------------------------------                
   |      Author: Chris J. Pickard, Cambridge University      |                
   ============================================================                
 
 Doing a self consistent calculation for the test configuration
 
 Atomic calculation performed for N: 1s2 2s2 2p3
 
 Converged in 55 iterations to an ae energy of -1481.742 eV
 
 ---------------------------------------
 AE eigenvalue nl 10 =      -14.13820921
 AE eigenvalue nl 20 =       -0.68290611
 AE eigenvalue nl 21 =       -0.26054797
 ---------------------------------------
 PS eigenvalue nl 20 =       -0.68291221
 PS eigenvalue nl 21 =       -0.26051708
 ---------------------------------------
 Maximum eigenvalue error:   3.09E-05
 
 Derived cutoff energies: C=  10 M=  15 F=  18 E=  23
 
 Checking for ghost states up to   1.48495 Ha
 
 No Ghost States Identified
 
 ***************************************
 
 Atomic calculation performed for O: 1s2 2s2 2p4
 
 Converged in 61 iterations to an ae energy of -2040.902 eV
 
 Identity difference: 4.10E-04
 
   ============================================================                
   | Pseudopotential Report - Date of generation 31-03-2024   |                
   ------------------------------------------------------------                
   | Element: O Ionic charge:  6.00 Level of theory: PBE      |                
   | Atomic Solver: Koelling-Harmon                           |                
   |                                                          |                
   |               Reference Electronic Structure             |                
   |         Orbital         Occupation         Energy        |                
   |            2s              2.000           -0.881        |                
   |            2p              4.000           -0.332        |                
   |                                                          |                
   |                 Pseudopotential Definition               |                
   |        Beta     l      e      Rc     scheme   norm       |                
   |          1      0   -0.881   1.100     qc      0         |                
   |          2      0    0.250   1.100     qc      0         |                
   |          3      1   -0.332   1.100     qc      0         |                
   |          4      1    0.250   1.100     qc      0         |                
   |         loc     2    0.000   1.100     pn      0         |                
   |                                                          |                
   | Augmentation charge Rinner = 0.769                       |                
   | Partial core correction Rc = 0.769                       |                
   ------------------------------------------------------------                
   | "2|1.1|14|18|21|20UU:21UU(qc=7)[]"                       |                
   ------------------------------------------------------------                
   |      Author: Chris J. Pickard, Cambridge University      |                
   ============================================================                
 
 Doing a self consistent calculation for the test configuration
 
 Atomic calculation performed for O: 1s2 2s2 2p4
 
 Converged in 61 iterations to an ae energy of -2040.902 eV
 
 ---------------------------------------
 AE eigenvalue nl 10 =      -18.91475256
 AE eigenvalue nl 20 =       -0.88057101
 AE eigenvalue nl 21 =       -0.33186952
 ---------------------------------------
 PS eigenvalue nl 20 =       -0.88059206
 PS eigenvalue nl 21 =       -0.33182157
 ---------------------------------------
 Maximum eigenvalue error:   4.80E-05
 
 Derived cutoff energies: C=  14 M=  17 F=  20 E=  22
 
 Checking for ghost states up to   1.49452 Ha
 
 No Ghost States Identified
 
 ***************************************
 
 Atomic calculation performed for Si: 1s2 2s2 2p6 3s2 3p2
 
 Converged in 54 iterations to an ae energy of -7886.857 eV
 
 Identity difference: 1.35E-04
 
   ============================================================                
   | Pseudopotential Report - Date of generation 31-03-2024   |                
   ------------------------------------------------------------                
   | Element: Si Ionic charge:  4.00 Level of theory: PBE     |                
   | Atomic Solver: Koelling-Harmon                           |                
   |                                                          |                
   |               Reference Electronic Structure             |                
   |         Orbital         Occupation         Energy        |                
   |            3s              2.000           -0.397        |                
   |            3p              2.000           -0.150        |                
   |                                                          |                
   |                 Pseudopotential Definition               |                
   |        Beta     l      e      Rc     scheme   norm       |                
   |          1      0   -0.397   1.797     qc      0         |                
   |          2      0    0.250   1.797     qc      0         |                
   |          3      1   -0.150   1.797     qc      0         |                
   |          4      1    0.250   1.797     qc      0         |                
   |          5      2    0.000   1.797     qc      0         |                
   |          6      2    0.250   1.797     qc      0         |                
   |         loc     3    0.000   1.797     pn      0         |                
   |                                                          |                
   | Augmentation charge Rinner = 1.255                       |                
   | Partial core correction Rc = 1.255                       |                
   ------------------------------------------------------------                
   | "3|1.8|3.6|5|7|30UU:31UU:32UU[]"                         |                
   ------------------------------------------------------------                
   |      Author: Chris J. Pickard, Cambridge University      |                
   ============================================================                
 
 Doing a self consistent calculation for the test configuration
 
 Atomic calculation performed for Si: 1s2 2s2 2p6 3s2 3p2
 
 Converged in 54 iterations to an ae energy of -7886.857 eV
 
 ---------------------------------------
 AE eigenvalue nl 10 =      -65.63192903
 AE eigenvalue nl 20 =       -5.12654326
 AE eigenvalue nl 21 =       -3.51173659
 AE eigenvalue nl 30 =       -0.39736430
 AE eigenvalue nl 31 =       -0.14998156
 ---------------------------------------
 PS eigenvalue nl 30 =       -0.39734922
 PS eigenvalue nl 31 =       -0.14996719
 ---------------------------------------
 Maximum eigenvalue error:   1.51E-05
 
 Derived cutoff energies: C=   1 M=   3 F=   6 E=   6
 
 Checking for ghost states up to   1.41161 Ha
 
 No Ghost States Identified
 
 ***************************************
 
 Pseudo atomic calculation performed for H 1s1
 
 Converged in 13 iterations to a total energy of -12.4790 eV
 
 Pseudo atomic calculation performed for C 2s2 2p2
 
 Converged in 17 iterations to a total energy of -148.5208 eV
 
 Pseudo atomic calculation performed for N 2s2 2p3
 
 Converged in 21 iterations to a total energy of -268.1820 eV
 
 Pseudo atomic calculation performed for O 2s2 2p4
 
 Converged in 23 iterations to a total energy of -432.6536 eV
 
 Pseudo atomic calculation performed for Si 3s2 3p2
 
 Converged in 11 iterations to a total energy of -165.0683 eV
 Calculation parallelised over 48 processes.
 Data is distributed by G-vector(48-way)

 ************************************ Title ************************************
 CASTEP calculation from BIOVIA Materials Studio 2024

 ***************************** General Parameters ******************************
  
 output verbosity                               : normal  (1)
 write checkpoint data to                       : Conf_0016.check
 type of calculation                            : geometry optimization
 stress calculation                             : off
 density difference calculation                 : off
 electron localisation func (ELF) calculation   : off
 Hirshfeld analysis                             : on
 polarisation (Berry phase) analysis            : off
 molecular orbital projected DOS                : off
 deltaSCF calculation                           : off
 unlimited duration calculation
 timing information                             : on
 memory usage estimate                          : on
 write extra output files                       : on
 write final potential to formatted file        : off
 write final density to formatted file          : off
 write BibTeX reference list                    : on
 write OTFG pseudopotential files               : on
 write electrostatic potential file             : on
 write bands file                               : on
 checkpoint writing                             : both castep_bin and check files
  
 output         length unit                     : A
 output           mass unit                     : amu
 output           time unit                     : ps
 output         charge unit                     : e
 output           spin unit                     : hbar/2
 output         energy unit                     : eV
 output          force unit                     : eV/A
 output       velocity unit                     : A/ps
 output       pressure unit                     : GPa
 output     inv_length unit                     : 1/A
 output      frequency unit                     : cm-1
 output force constant unit                     : eV/A**2
 output         volume unit                     : A**3
 output   IR intensity unit                     : (D/A)**2/amu
 output         dipole unit                     : D
 output         efield unit                     : eV/A/e
 output        entropy unit                     : J/mol/K
 output    efield chi2 unit                     : pm/V
  
 wavefunctions paging                           : none
 random number generator seed                   :   10859307
 data distribution                              : optimal for this architecture
 optimization strategy                          : balance speed and memory

 *********************** Exchange-Correlation Parameters ***********************
  
 using functional                               : Perdew Burke Ernzerhof
 relativistic treatment                         : Koelling-Harmon
 DFT+D: Semi-empirical dispersion correction    : on
 SEDC with                                      : G06 correction scheme

 ************************* Pseudopotential Parameters **************************
  
 pseudopotential representation                 : reciprocal space
 <beta|phi> representation                      : reciprocal space
 spin-orbit coupling                            : off

 **************************** Basis Set Parameters *****************************
  
 plane wave basis set cut-off                   :   600.0000   eV
 size of standard grid                          :     1.5000
 size of   fine   gmax                          :    18.8237   1/A
 largest prime factor in FFT                    :          5
 finite basis set correction                    : none

 **************************** Electronic Parameters ****************************
  
 number of  electrons                           :  74.00    
 net charge of system                           : +1.000    
 treating system as non-spin-polarized
 number of bands                                :         37

 ********************* Electronic Minimization Parameters **********************
  
 Method: Treating system as non-metallic,
         and number of  SD  steps               :          1
         and number of  CG  steps               :          4
  
 total energy / atom convergence tol.           : 0.2000E-05   eV
 eigen-energy convergence tolerance             : 0.1000E-05   eV
 max force / atom convergence tol.              : ignored
 convergence tolerance window                   :          3   cycles
 max. number of SCF cycles                      :        100
 periodic dipole correction                     : NONE

 ************************** Density Mixing Parameters **************************
  
 density-mixing scheme                          : Pulay
 max. length of mixing history                  :         20
 charge density mixing amplitude                : 0.5000    
 cut-off energy for mixing                      :  600.0       eV
 charge density mixing g-vector                 :  1.500       1/A

 *********************** Population Analysis Parameters ************************
  
 Population analysis with cutoff                :  3.000       A
 Population analysis output                     : summary and pdos components

 ********************** Geometry Optimization Parameters ***********************
  
 optimization method                            : LBFGS
 max. no. of LBFGS updates                      : unbounded
 preconditioned LBFGS is activated
 preconditioner type                            : EXP
     stabilization constant                     :     0.1000
     parameter A                                :     3.0000
     nearest neighbor distance                  : automatic
     cut-off distance                           : automatic
     parameter mu                               : automatic
 variable cell method                           : fixed basis quality
 max. number of steps                           :        300
 estimated bulk modulus                         :  500.0       GPa
 estimated <frequency>                          :  1668.       cm-1
 geom line minimiser                            : on
 with line minimiser tolerance                  :     0.4000
 total energy convergence tolerance             : 0.2000E-04   eV/atom
        max ionic |force| tolerance             : 0.5000E-01   eV/A
 max ionic |displacement| tolerance             : 0.2000E-02   A
   max |stress component| tolerance             : 0.1000       GPa
 convergence tolerance window                   :          2   steps
 backup results every                           :          5   steps
 write geom trajectory file                     : on

 *******************************************************************************
  
 
                           -------------------------------
                                      Unit Cell
                           -------------------------------
        Real Lattice(A)                      Reciprocal Lattice(1/A)
    13.4840002    -0.0000006    -0.0000006        0.465973392   0.000000000   0.000000000
     0.0000000    20.4006996    -0.0000009        0.000000013   0.307988717   0.000000000
     0.0000000     0.0000000    45.0000000        0.000000006   0.000000006   0.139626340
 
                       Lattice parameters(A)       Cell Angles
                    a =     13.484000          alpha =   90.000003
                    b =     20.400700          beta  =   90.000003
                    c =     45.000000          gamma =   90.000003
 
                       Current cell volume =         12378.736702       A**3
                                   density =             0.015698   AMU/A**3
                                           =             0.026068     g/cm^3
 
                           -------------------------------
                                     Cell Contents
                           -------------------------------
                         Total number of ions in cell =   32
                      Total number of species in cell =    5
                        Max number of any one species =   20
 
            xxxxxxxxxxxxxxxxxxxxxxxxxxxxxxxxxxxxxxxxxxxxxxxxxxxxxxxxxxxx
            x  Element    Atom        Fractional coordinates of atoms  x
            x            Number           u          v          w      x
            x----------------------------------------------------------x
            x  H            1         0.381124   0.425560   0.553183   x 
            x  H            2         0.499361   0.420586   0.534991   x 
            x  H            3         0.423477   0.540926   0.570119   x 
            x  H            4         0.540535   0.534785   0.552186   x 
            x  H            5         0.296324   0.410286   0.504329   x 
            x  H            6         0.318244   0.468522   0.475656   x 
            x  H            7         0.391691   0.372313   0.458332   x 
            x  H            8         0.443335   0.349466   0.492695   x 
            x  H            9         0.568747   0.384359   0.454303   x 
            x  H           10         0.578881   0.428634   0.487735   x 
            x  H           11         0.440675   0.529145   0.405202   x 
            x  H           12         0.656707   0.503551   0.416548   x 
            x  H           13         0.496981   0.601080   0.465297   x 
            x  H           14         0.341162   0.518469   0.521145   x 
            x  H           15         0.448859   0.514603   0.504397   x 
            x  H           16         0.469465   0.448436   0.604049   x 
            x  H           17         0.585667   0.440806   0.586018   x 
            x  H           18         0.601660   0.505594   0.632983   x 
            x  H           19         0.513847   0.563675   0.619719   x 
            x  H           20         0.630983   0.555399   0.601765   x 
            x  C            1         0.440824   0.454306   0.542651   x 
            x  C            2         0.482474   0.506207   0.563659   x 
            x  C            3         0.354779   0.438546   0.492921   x 
            x  C            4         0.429880   0.392136   0.478153   x 
            x  C            5         0.530575   0.421147   0.468234   x 
            x  C            6         0.527007   0.476287   0.591957   x 
            x  C            7         0.570714   0.528069   0.612725   x 
            x  N            1         0.395872   0.487732   0.514734   x 
            x  O            1         0.627127   0.526237   0.432675   x 
            x  O            2         0.485640   0.556666   0.470903   x 
            x  O            3         0.440018   0.497468   0.420658   x 
            x  Si           1         0.522986   0.501404   0.446861   x 
            xxxxxxxxxxxxxxxxxxxxxxxxxxxxxxxxxxxxxxxxxxxxxxxxxxxxxxxxxxxx
 
 
                         No user defined ionic velocities
 
                           -------------------------------
                                   Details of Species
                           -------------------------------
 
                               Mass of species in AMU
                                    H    1.0080000
                                    C   12.0109997
                                    N   14.0070000
                                    O   15.9989996
                                    Si   28.0849991
 
                          Electric Quadrupole Moment (Barn)
                                    H    0.0028600 Isotope  2
                                    C    0.0332700 Isotope 11
                                    N    0.0204400 Isotope 14
                                    O   -0.0255800 Isotope 17
                                    Si    1.0000000 No Isotope Defined
 
                          Files used for pseudopotentials:
                                    H 1|0.6|9|10|15|10UU(qc=8)[]
                                    C 2|1.4|11|12|14.7|20UU:21UU(qc=7)[]
                                    N 2|1.1|12|16|19|20UU:21UU(qc=7)[]
                                    O 2|1.1|14|18|21|20UU:21UU(qc=7)[]
                                    Si 3|1.8|3.6|5|7|30UU:31UU:32UU[]
 
                           -------------------------------
                              k-Points For BZ Sampling
                           -------------------------------
                       MP grid size for SCF calculation is  1  1  1
                            with an offset of   0.000  0.000  0.000
                       Number of kpoints used =             1
 
                           -------------------------------
                               Symmetry and Constraints
                           -------------------------------
 
                      Maximum deviation from symmetry =  0.00000         ANG
 
                      Number of symmetry operations   =           1
                      Number of nonlinear constraints =           3
         There are no ionic constraints specified or generated for this cell
                      Point group of crystal =     1: C1, 1, 1
                      Space group of crystal =     1: P1, P 1
 
             Set iprint > 1 for details on symmetry rotations/translations
 
                         Centre of mass is NOT constrained
 
                         Number of cell constraints= 6
                         Cell constraints are:  0 0 0 0 0 0
 
                         External pressure/stress (GPa)
                          0.00000   0.00000   0.00000
                                    0.00000   0.00000
                                              0.00000
 
                                --------------------
                                  DFT-D parameters
                                --------------------
 
                          Dispersion-correction scheme : G06       
                        Parameter s6 :   0.750000 (default)
                        Parameter d  :  20.000000 (default)
 
        xxxxxxxxxxxxxxxxxxxxxxxxxxxxxxxxxxxxxxxxxxxxxxxxxxxxxxxxxxxxxxxxxxxx
        x              Atomic DFT-D parameters                             x
        x  Species      C6            R0                                   x
        x               eV A^6        Ang                                  x
        x------------------------------------------------------------------x
        x  H             1.4510       1.0010   (default)                   x
        x  C            18.1375       1.4520   (default)                   x
        x  N            12.7481       1.3970   (default)                   x
        x  O             7.2550       1.3420   (default)                   x
        x  Si           95.6622       1.7160   (default)                   x
        xxxxxxxxxxxxxxxxxxxxxxxxxxxxxxxxxxxxxxxxxxxxxxxxxxxxxxxxxxxxxxxxxxxx
 
 
+---------------- MEMORY AND SCRATCH DISK ESTIMATES PER PROCESS --------------+
|                                                     Memory          Disk    |
| Baseline code, static data and system overhead     6530.0 MB         0.0 MB |
| BLAS internal memory storage                          0.0 MB         0.0 MB |
| Model and support data                              540.6 MB         0.0 MB |
| Electronic energy minimisation requirements          31.8 MB         0.0 MB |
| Force calculation requirements                        6.8 MB         0.0 MB |
|                                               ----------------------------- |
| Approx. total storage required per process         7102.3 MB         0.0 MB |
|                                                                             |
| Requirements will fluctuate during execution and may exceed these estimates |
+-----------------------------------------------------------------------------+
Calculating approximate eigenstates for fixed initial Hamiltonian
Cut-off for approx. calculation is  119.774 eV
Improving approx. states at cut-off of  300.000 eV
Resetting cut-off to  600.000 eV
Calculating total energy with cut-off of  600.000 eV.
------------------------------------------------------------------------ <-- SCF
SCF loop      Energy                           Energy gain       Timer   <-- SCF
                                               per atom          (sec)   <-- SCF
------------------------------------------------------------------------ <-- SCF
Initial  -2.92609669E+003                                         30.78  <-- SCF
      1  -3.20271446E+003                    8.64430522E+000      31.58  <-- SCF
      2  -3.20297982E+003                    8.29241694E-003      32.36  <-- SCF
      3  -3.19294860E+003                   -3.13475460E-001      33.50  <-- SCF
      4  -3.19181068E+003                   -3.55600603E-002      34.66  <-- SCF
      5  -3.19128912E+003                   -1.62989091E-002      35.66  <-- SCF
      6  -3.19122158E+003                   -2.11044219E-003      36.95  <-- SCF
      7  -3.19118247E+003                   -1.22218659E-003      37.96  <-- SCF
      8  -3.19118083E+003                   -5.13334663E-005      39.07  <-- SCF
      9  -3.19117408E+003                   -2.10800693E-004      40.07  <-- SCF
     10  -3.19116050E+003                   -4.24406267E-004      41.09  <-- SCF
     11  -3.19114069E+003                   -6.19086966E-004      42.09  <-- SCF
     12  -3.19106655E+003                   -2.31710770E-003      43.07  <-- SCF
     13  -3.19099418E+003                   -2.26149647E-003      44.10  <-- SCF
     14  -3.19092768E+003                   -2.07809816E-003      45.08  <-- SCF
     15  -3.19087303E+003                   -1.70790419E-003      46.07  <-- SCF
     16  -3.19083564E+003                   -1.16814366E-003      47.04  <-- SCF
     17  -3.19080656E+003                   -9.09030527E-004      48.02  <-- SCF
     18  -3.19077738E+003                   -9.11717588E-004      49.00  <-- SCF
     19  -3.19075285E+003                   -7.66481265E-004      49.98  <-- SCF
     20  -3.19072999E+003                   -7.14566704E-004      50.89  <-- SCF
     21  -3.19070026E+003                   -9.28875130E-004      51.92  <-- SCF
     22  -3.19068990E+003                   -3.23773436E-004      52.97  <-- SCF
     23  -3.19069048E+003                    1.80053849E-005      54.05  <-- SCF
     24  -3.19069000E+003                   -1.50015391E-005      55.02  <-- SCF
     25  -3.19069399E+003                    1.24634922E-004      55.88  <-- SCF
     26  -3.19069933E+003                    1.66872189E-004      56.76  <-- SCF
     27  -3.19070344E+003                    1.28448878E-004      57.55  <-- SCF
     28  -3.19070662E+003                    9.95435082E-005      58.37  <-- SCF
     29  -3.19071009E+003                    1.08506711E-004      59.24  <-- SCF
     30  -3.19071199E+003                    5.90934452E-005      60.03  <-- SCF
     31  -3.19071436E+003                    7.42706756E-005      60.82  <-- SCF
     32  -3.19071611E+003                    5.47298033E-005      61.61  <-- SCF
     33  -3.19071714E+003                    3.21368712E-005      62.40  <-- SCF
     34  -3.19071790E+003                    2.36447584E-005      63.20  <-- SCF
     35  -3.19071854E+003                    2.01534399E-005      63.98  <-- SCF
     36  -3.19071919E+003                    2.00873403E-005      64.77  <-- SCF
     37  -3.19071960E+003                    1.29589145E-005      65.56  <-- SCF
     38  -3.19072005E+003                    1.41085535E-005      66.34  <-- SCF
     39  -3.19072053E+003                    1.48594055E-005      67.13  <-- SCF
     40  -3.19072081E+003                    8.70597861E-006      67.92  <-- SCF
     41  -3.19072118E+003                    1.16980339E-005      68.71  <-- SCF
     42  -3.19072130E+003                    3.58995452E-006      69.50  <-- SCF
     43  -3.19072148E+003                    5.78337640E-006      70.29  <-- SCF
     44  -3.19072155E+003                    2.07825369E-006      71.08  <-- SCF
     45  -3.19072164E+003                    2.89632813E-006      71.87  <-- SCF
     46  -3.19072168E+003                    1.08450427E-006      72.66  <-- SCF
     47  -3.19072172E+003                    1.28251216E-006      73.44  <-- SCF
     48  -3.19072174E+003                    6.08488651E-007      74.26  <-- SCF
------------------------------------------------------------------------ <-- SCF
 
Final energy =  -3190.721735613     eV
(energy not corrected for finite basis set)
 
(SEDC) Total Energy Correction : -0.834813E+00 eV

Dispersion corrected final energy* =  -3191.556548211     eV

Writing analysis data to Conf_0016.castep_bin

Writing model to Conf_0016.check

WARNING - nonlinear constraints cannot be used with LBFGS algorithm
        - consider setting geom_method=DELOCALIZED
 
        => Turning nonlinear constraints OFF
 
+---------------- MEMORY AND SCRATCH DISK ESTIMATES PER PROCESS --------------+
|                                                     Memory          Disk    |
| Model and support data                              550.1 MB         0.0 MB |
| Electronic energy minimisation requirements          31.8 MB         0.0 MB |
| Geometry minimisation requirements                   34.8 MB         0.0 MB |
|                                               ----------------------------- |
| Approx. total storage required per process          616.7 MB         0.0 MB |
|                                                                             |
| Requirements will fluctuate during execution and may exceed these estimates |
+-----------------------------------------------------------------------------+
 
 
 ************************************** Forces **************************************
 *                                                                                  *
 *                           Cartesian components (eV/A)                            *
 * -------------------------------------------------------------------------------- *
 *                         x                    y                    z              *
 *                                                                                  *
 * H               1      0.03865              0.11322             -0.17895         *
 * H               2     -0.19087              0.12702             -0.12430         *
 * H               3      0.00619             -0.02406             -0.03231         *
 * H               4     -0.07280             -0.02850             -0.04064         *
 * H               5      0.17640              0.14789              0.00887         *
 * H               6      0.07567             -0.06781              0.06552         *
 * H               7     -0.01699              0.13770              0.20910         *
 * H               8     -0.01182              0.10840             -0.01407         *
 * H               9     -0.06427              0.15226              0.08029         *
 * H              10      0.03282              0.08999             -0.02905         *
 * H              11     -0.02711              0.65195             -0.78442         *
 * H              12      0.44603             -0.48121             -0.79665         *
 * H              13      0.11823              1.01721             -0.06729         *
 * H              14     -0.43490              0.41564              0.23425         *
 * H              15      0.60681              0.81834             -0.60356         *
 * H              16      0.03641              0.03198             -0.10312         *
 * H              17     -0.10854              0.05049             -0.08743         *
 * H              18     -0.10055              0.03928             -0.12867         *
 * H              19      0.03138             -0.04434             -0.04463         *
 * H              20     -0.03058             -0.01569             -0.00401         *
 * C               1     -0.14841              0.59200             -0.16632         *
 * C               2      0.04482             -0.03247              0.02881         *
 * C               3     -0.50094              0.23293             -0.67253         *
 * C               4      0.07358             -0.26623              0.12734         *
 * C               5     -0.39241              0.46305             -0.14578         *
 * C               6      0.02782             -0.19927              0.13533         *
 * C               7      0.03842              0.12796              0.05225         *
 * N               1      0.49348             -2.52896              1.28770         *
 * O               1      0.19084              0.71465              0.94190         *
 * O               2      0.07513             -0.29973              0.91245         *
 * O               3     -0.54190             -1.13269              0.51245         *
 * Si              1      0.12943             -0.91098             -0.57254         *
 *                                                                                  *
 ************************************************************************************
 EXP precond LBFGS => estimated nearest neighbor distance :  1.624       A
 EXP precond LBFGS => estimated cutoff distance :  3.247       A
 doing test perturbation to get energy scale for EXP preconditioner
 
                           -------------------------------
                                     Cell Contents
                           -------------------------------
 
            xxxxxxxxxxxxxxxxxxxxxxxxxxxxxxxxxxxxxxxxxxxxxxxxxxxxxxxxxxxxxxxxx
            x  Element         Atom        Fractional coordinates of atoms  x
            x                 Number           u          v          w      x
            x---------------------------------------------------------------x
            x  H                 1         0.382173   0.426350   0.553419   x
            x  H                 2         0.500545   0.421378   0.535248   x
            x  H                 3         0.424588   0.541592   0.570334   x
            x  H                 4         0.541736   0.535462   0.552423   x
            x  H                 5         0.297206   0.411080   0.504617   x
            x  H                 6         0.319174   0.469284   0.475970   x
            x  H                 7         0.392757   0.373105   0.458658   x
            x  H                 8         0.444470   0.350249   0.492994   x
            x  H                 9         0.569951   0.385155   0.454632   x
            x  H                10         0.580085   0.429423   0.488039   x
            x  H                11         0.441807   0.529831   0.405555   x
            x  H                12         0.657873   0.504274   0.416897   x
            x  H                13         0.498163   0.601624   0.465618   x
            x  H                14         0.342140   0.519171   0.521417   x
            x  H                15         0.450000   0.515311   0.504686   x
            x  H                16         0.470626   0.449214   0.604218   x
            x  H                17         0.586869   0.441589   0.586212   x
            x  H                18         0.602858   0.506314   0.633111   x
            x  H                19         0.515038   0.564300   0.619866   x
            x  H                20         0.632168   0.556039   0.601938   x
            x  C                 1         0.441956   0.455080   0.542900   x
            x  C                 2         0.483646   0.506927   0.563882   x
            x  C                 3         0.355782   0.439330   0.493220   x
            x  C                 4         0.430999   0.392932   0.478464   x
            x  C                 5         0.531774   0.421939   0.468553   x
            x  C                 6         0.528204   0.477042   0.592143   x
            x  C                 7         0.571918   0.528756   0.612883   x
            x  N                 1         0.396944   0.488475   0.515013   x
            x  O                 1         0.628314   0.526927   0.433017   x
            x  O                 2         0.486814   0.557303   0.471220   x
            x  O                 3         0.441149   0.498199   0.421005   x
            x  Si                1         0.524182   0.502130   0.447194   x
            xxxxxxxxxxxxxxxxxxxxxxxxxxxxxxxxxxxxxxxxxxxxxxxxxxxxxxxxxxxxxxxxx
 
 
------------------------------------------------------------------------ <-- SCF
SCF loop      Energy                           Energy gain       Timer   <-- SCF
                                               per atom          (sec)   <-- SCF
------------------------------------------------------------------------ <-- SCF
Initial  -3.19151770E+003                                         76.25  <-- SCF
      1  -3.19070290E+003                   -2.54623781E-002      77.05  <-- SCF
      2  -3.19073090E+003                    8.74840220E-004      78.18  <-- SCF
      3  -3.19070478E+003                   -8.16358929E-004      79.20  <-- SCF
      4  -3.19072044E+003                    4.89462582E-004      80.20  <-- SCF
      5  -3.19072060E+003                    4.94001236E-006      81.01  <-- SCF
      6  -3.19072076E+003                    5.17231689E-006      81.77  <-- SCF
      7  -3.19072083E+003                    2.21978921E-006      82.53  <-- SCF
      8  -3.19072088E+003                    1.61942772E-006      83.29  <-- SCF
      9  -3.19072094E+003                    1.66964130E-006      84.06  <-- SCF
     10  -3.19072095E+003                    5.29228951E-007      84.82  <-- SCF
     11  -3.19072099E+003                    1.16225068E-006      85.58  <-- SCF
------------------------------------------------------------------------ <-- SCF
 
Final energy =  -3190.720991947     eV
(energy not corrected for finite basis set)
 
(SEDC) Total Energy Correction : -0.835474E+00 eV

Dispersion corrected final energy* =  -3191.556466390     eV
 
 ************************************** Forces **************************************
 *                                                                                  *
 *                           Cartesian components (eV/A)                            *
 * -------------------------------------------------------------------------------- *
 *                         x                    y                    z              *
 *                                                                                  *
 * H               1      0.06114              0.10501             -0.16539         *
 * H               2     -0.20905              0.10272             -0.11828         *
 * H               3      0.00410             -0.02174             -0.03024         *
 * H               4     -0.07014             -0.01451             -0.05816         *
 * H               5      0.22140              0.14392              0.00775         *
 * H               6      0.07751             -0.07261              0.06569         *
 * H               7     -0.01239              0.11940              0.19509         *
 * H               8     -0.00375              0.09476             -0.00715         *
 * H               9     -0.06311              0.14823              0.07049         *
 * H              10      0.05637              0.07859             -0.01257         *
 * H              11     -0.03534              0.67572             -0.81628         *
 * H              12      0.46136             -0.46299             -0.82693         *
 * H              13      0.12075              1.11138             -0.09093         *
 * H              14     -0.42768              0.41761              0.24268         *
 * H              15      0.58291              0.81564             -0.60440         *
 * H              16      0.04875              0.02509             -0.09338         *
 * H              17     -0.10451              0.03310             -0.09378         *
 * H              18     -0.09214              0.01133             -0.08211         *
 * H              19      0.00566             -0.03065             -0.03377         *
 * H              20     -0.01422             -0.00849             -0.01293         *
 * C               1     -0.16561              0.55058             -0.16267         *
 * C               2      0.03109             -0.02174              0.02649         *
 * C               3     -0.49575              0.19547             -0.66716         *
 * C               4      0.06434             -0.26564              0.12881         *
 * C               5     -0.41877              0.43978             -0.14540         *
 * C               6      0.01749             -0.23651              0.14372         *
 * C               7      0.02751              0.13406              0.05563         *
 * N               1      0.52377             -2.28238              1.21443         *
 * O               1      0.17292              0.72619              0.96854         *
 * O               2      0.04773             -0.38778              0.96817         *
 * O               3     -0.53139             -1.17434              0.53787         *
 * Si              1      0.11905             -0.94922             -0.60385         *
 *                                                                                  *
 ************************************************************************************
 EXP precond LBFGS => estimated parameter mu :  1.000       eV/A**2
 LBFGS: finished iteration     0 with enthalpy= -3.19155655E+003 eV
  
 +-----------+-----------------+-----------------+------------+-----+ <-- LBFGS
 | Parameter |      value      |    tolerance    |    units   | OK? | <-- LBFGS
 +-----------+-----------------+-----------------+------------+-----+ <-- LBFGS
 |  dE/ion   |   0.000000E+000 |   2.000000E-005 |         eV | No  | <-- LBFGS
 |  |F|max   |   2.637883E+000 |   5.000000E-002 |       eV/A | No  | <-- LBFGS
 |  |dR|max  |   7.557220E-015 |   2.000000E-003 |          A | No  | <-- LBFGS
 +-----------+-----------------+-----------------+------------+-----+ <-- LBFGS
  

================================================================================
 Starting LBFGS iteration          1 ...
================================================================================
  
 +------------+-------------+-------------+-----------------+ <-- min LBFGS
 |    Step    |   lambda    |   F.delta'  |    enthalpy     | <-- min LBFGS
 +------------+-------------+-------------+-----------------+ <-- min LBFGS
 |  previous  |    0.000000 |    2.006505 |    -3191.556548 | <-- min LBFGS
 +------------+-------------+-------------+-----------------+ <-- min LBFGS
  

--------------------------------------------------------------------------------
 LBFGS: starting iteration         1 with trial guess (lambda=  0.668412)
--------------------------------------------------------------------------------
 
                           -------------------------------
                                     Cell Contents
                           -------------------------------
 
            xxxxxxxxxxxxxxxxxxxxxxxxxxxxxxxxxxxxxxxxxxxxxxxxxxxxxxxxxxxxxxxxx
            x  Element         Atom        Fractional coordinates of atoms  x
            x                 Number           u          v          w      x
            x---------------------------------------------------------------x
            x  H                 1         0.380052   0.427096   0.552746   x
            x  H                 2         0.496591   0.422289   0.534697   x
            x  H                 3         0.422027   0.541074   0.569838   x
            x  H                 4         0.538516   0.534961   0.551862   x
            x  H                 5         0.296601   0.410949   0.504623   x
            x  H                 6         0.317977   0.467755   0.476176   x
            x  H                 7         0.390043   0.373829   0.459365   x
            x  H                 8         0.441728   0.351024   0.493169   x
            x  H                 9         0.566197   0.387453   0.454686   x
            x  H                10         0.577315   0.431189   0.487867   x
            x  H                11         0.436377   0.524549   0.401704   x
            x  H                12         0.673781   0.499020   0.414504   x
            x  H                13         0.503627   0.609554   0.467798   x
            x  H                14         0.339324   0.517693   0.522882   x
            x  H                15         0.453891   0.515832   0.504733   x
            x  H                16         0.467623   0.449029   0.603215   x
            x  H                17         0.582579   0.441509   0.585228   x
            x  H                18         0.598337   0.506656   0.631848   x
            x  H                19         0.511723   0.564234   0.618836   x
            x  H                20         0.628303   0.556119   0.600984   x
            x  C                 1         0.439041   0.456409   0.542488   x
            x  C                 2         0.481005   0.506509   0.563422   x
            x  C                 3         0.352380   0.438773   0.492656   x
            x  C                 4         0.428629   0.392533   0.478810   x
            x  C                 5         0.527209   0.424232   0.468286   x
            x  C                 6         0.524890   0.476303   0.591478   x
            x  C                 7         0.568346   0.529127   0.611965   x
            x  N                 1         0.398303   0.480881   0.517022   x
            x  O                 1         0.640855   0.526352   0.433845   x
            x  O                 2         0.491297   0.558500   0.474433   x
            x  O                 3         0.433759   0.486286   0.419764   x
            x  Si                1         0.527296   0.494681   0.445852   x
            xxxxxxxxxxxxxxxxxxxxxxxxxxxxxxxxxxxxxxxxxxxxxxxxxxxxxxxxxxxxxxxxx
 
 
------------------------------------------------------------------------ <-- SCF
SCF loop      Energy                           Energy gain       Timer   <-- SCF
                                               per atom          (sec)   <-- SCF
------------------------------------------------------------------------ <-- SCF
Initial  -3.20337974E+003                                         86.92  <-- SCF
      1  -3.18498604E+003                   -5.74803056E-001      87.76  <-- SCF
      2  -3.18885995E+003                    1.21059594E-001      89.04  <-- SCF
      3  -3.18813021E+003                   -2.28040926E-002      90.19  <-- SCF
      4  -3.18822025E+003                    2.81360945E-003      91.29  <-- SCF
      5  -3.18826558E+003                    1.41663307E-003      92.30  <-- SCF
      6  -3.18826721E+003                    5.09366604E-005      93.49  <-- SCF
      7  -3.18826696E+003                   -8.01181259E-006      94.46  <-- SCF
      8  -3.18826685E+003                   -3.27483639E-006      95.39  <-- SCF
      9  -3.18826657E+003                   -8.69335411E-006      96.31  <-- SCF
     10  -3.18826624E+003                   -1.02868858E-005      97.24  <-- SCF
     11  -3.18826639E+003                    4.46309868E-006      98.01  <-- SCF
     12  -3.18826674E+003                    1.09312972E-005      98.83  <-- SCF
     13  -3.18826695E+003                    6.73480922E-006      99.60  <-- SCF
     14  -3.18826747E+003                    1.63442400E-005     100.37  <-- SCF
     15  -3.18826793E+003                    1.41139660E-005     101.14  <-- SCF
     16  -3.18826841E+003                    1.50287955E-005     101.91  <-- SCF
     17  -3.18826867E+003                    8.11912387E-006     102.68  <-- SCF
     18  -3.18826919E+003                    1.63797596E-005     103.45  <-- SCF
     19  -3.18826934E+003                    4.66547320E-006     104.26  <-- SCF
     20  -3.18826957E+003                    7.06149200E-006     105.04  <-- SCF
     21  -3.18826969E+003                    3.94004741E-006     105.82  <-- SCF
     22  -3.18826975E+003                    1.73774701E-006     106.60  <-- SCF
     23  -3.18826983E+003                    2.47218029E-006     107.39  <-- SCF
     24  -3.18826980E+003                   -8.73757176E-007     108.17  <-- SCF
     25  -3.18826988E+003                    2.43582636E-006     108.96  <-- SCF
     26  -3.18826986E+003                   -4.92125706E-007     109.74  <-- SCF
     27  -3.18826994E+003                    2.54872508E-006     110.53  <-- SCF
     28  -3.18826997E+003                    9.67367639E-007     111.31  <-- SCF
     29  -3.18827010E+003                    3.86771461E-006     112.10  <-- SCF
     30  -3.18827020E+003                    3.12618685E-006     112.88  <-- SCF
     31  -3.18827026E+003                    1.95898481E-006     113.66  <-- SCF
     32  -3.18827045E+003                    5.94253593E-006     114.45  <-- SCF
     33  -3.18827057E+003                    3.62684716E-006     115.23  <-- SCF
     34  -3.18827076E+003                    6.01826847E-006     116.02  <-- SCF
     35  -3.18827084E+003                    2.65449992E-006     116.81  <-- SCF
     36  -3.18827097E+003                    3.99580990E-006     117.60  <-- SCF
     37  -3.18827106E+003                    2.78149887E-006     118.38  <-- SCF
     38  -3.18827117E+003                    3.54187299E-006     119.21  <-- SCF
     39  -3.18827124E+003                    2.11368601E-006     120.00  <-- SCF
     40  -3.18827130E+003                    1.85088239E-006     120.78  <-- SCF
     41  -3.18827133E+003                    9.98504970E-007     121.57  <-- SCF
     42  -3.18827136E+003                    7.63984903E-007     122.36  <-- SCF
------------------------------------------------------------------------ <-- SCF
 
Final energy =  -3188.271357576     eV
(energy not corrected for finite basis set)
 
(SEDC) Total Energy Correction : -0.835655E+00 eV

Dispersion corrected final energy* =  -3189.107012591     eV
 
 ************************************** Forces **************************************
 *                                                                                  *
 *                           Cartesian components (eV/A)                            *
 * -------------------------------------------------------------------------------- *
 *                         x                    y                    z              *
 *                                                                                  *
 * H               1      0.11068             -0.27068              0.50168         *
 * H               2      0.24002             -0.25263              0.38892         *
 * H               3     -0.04898              0.10335              0.01229         *
 * H               4      0.06190              0.09204             -0.06424         *
 * H               5     -0.45309             -0.39193             -0.07608         *
 * H               6     -0.42853              1.26195             -0.71894         *
 * H               7     -0.10639             -0.32530             -0.37516         *
 * H               8      0.30549             -0.41779              0.38087         *
 * H               9      0.02272             -0.22892              0.06437         *
 * H              10     -0.24078              0.12964             -0.45081         *
 * H              11     -0.10379             -3.11394              3.25696         *
 * H              12     -1.85028              2.17873              3.37519         *
 * H              13     -0.55897             -3.83037              1.07192         *
 * H              14      1.86636             -1.75441             -0.59933         *
 * H              15     -1.54418             -1.15558              0.70413         *
 * H              16     -0.30260             -0.21642              0.20020         *
 * H              17      0.28635             -0.24702             -0.05341         *
 * H              18      0.19450             -0.13604              0.38520         *
 * H              19     -0.18179              0.15576              0.05133         *
 * H              20      0.05189              0.05516             -0.09825         *
 * C               1      1.08538             -2.94872              2.29220         *
 * C               2      0.00184              0.39809              0.10956         *
 * C               3      1.38345             -1.33808              1.88150         *
 * C               4     -0.29387              0.73178             -0.55698         *
 * C               5      0.38980             -2.26952              1.72497         *
 * C               6      0.12146              0.54154             -0.00192         *
 * C               7     -0.10203             -0.23341             -0.36072         *
 * N               1     -2.04256              6.94694             -4.65744         *
 * O               1     -0.43195             -3.15673             -2.68297         *
 * O               2      1.15151              1.56774             -2.71866         *
 * O               3      1.83121              3.26104             -1.79097         *
 * Si              1     -0.41478              4.86373             -1.19541         *
 *                                                                                  *
 ************************************************************************************
  
 +------------+-------------+-------------+-----------------+ <-- min LBFGS
 |    Step    |   lambda    |   F.delta'  |    enthalpy     | <-- min LBFGS
 +------------+-------------+-------------+-----------------+ <-- min LBFGS
 |  previous  |    0.000000 |    2.006505 |    -3191.556548 | <-- min LBFGS
 | trial step |    0.668412 |   -6.350354 |    -3189.107013 | <-- min LBFGS
 +------------+-------------+-------------+-----------------+ <-- min LBFGS
  

--------------------------------------------------------------------------------
 LBFGS: improving iteration         1 with line minimization (lambda=  0.160488)
--------------------------------------------------------------------------------
 
                           -------------------------------
                                     Cell Contents
                           -------------------------------
 
            xxxxxxxxxxxxxxxxxxxxxxxxxxxxxxxxxxxxxxxxxxxxxxxxxxxxxxxxxxxxxxxxx
            x  Element         Atom        Fractional coordinates of atoms  x
            x                 Number           u          v          w      x
            x---------------------------------------------------------------x
            x  H                 1         0.380866   0.425929   0.553078   x
            x  H                 2         0.498696   0.420995   0.534921   x
            x  H                 3         0.423128   0.540962   0.570051   x
            x  H                 4         0.540051   0.534827   0.552108   x
            x  H                 5         0.296391   0.410445   0.504399   x
            x  H                 6         0.318180   0.468338   0.475781   x
            x  H                 7         0.391295   0.372677   0.458580   x
            x  H                 8         0.442949   0.349840   0.492809   x
            x  H                 9         0.568135   0.385102   0.454395   x
            x  H                10         0.578505   0.429247   0.487767   x
            x  H                11         0.439643   0.528042   0.404362   x
            x  H                12         0.660806   0.502463   0.416057   x
            x  H                13         0.498577   0.603115   0.465897   x
            x  H                14         0.340721   0.518283   0.521562   x
            x  H                15         0.450067   0.514898   0.504478   x
            x  H                16         0.469022   0.448579   0.603848   x
            x  H                17         0.584925   0.440975   0.585828   x
            x  H                18         0.600862   0.505849   0.632711   x
            x  H                19         0.513337   0.563810   0.619507   x
            x  H                20         0.630340   0.555572   0.601577   x
            x  C                 1         0.440396   0.454811   0.542612   x
            x  C                 2         0.482122   0.506280   0.563602   x
            x  C                 3         0.354203   0.438600   0.492857   x
            x  C                 4         0.429580   0.392232   0.478311   x
            x  C                 5         0.529767   0.421888   0.468246   x
            x  C                 6         0.526498   0.476291   0.591842   x
            x  C                 7         0.570145   0.528323   0.612543   x
            x  N                 1         0.396455   0.486087   0.515284   x
            x  O                 1         0.630423   0.526265   0.432956   x
            x  O                 2         0.486998   0.557106   0.471751   x
            x  O                 3         0.438515   0.494783   0.420443   x
            x  Si                1         0.524021   0.499790   0.446619   x
            xxxxxxxxxxxxxxxxxxxxxxxxxxxxxxxxxxxxxxxxxxxxxxxxxxxxxxxxxxxxxxxxx
 
 
------------------------------------------------------------------------ <-- SCF
SCF loop      Energy                           Energy gain       Timer   <-- SCF
                                               per atom          (sec)   <-- SCF
------------------------------------------------------------------------ <-- SCF
Initial  -3.21597587E+003                                        123.70  <-- SCF
      1  -3.18942932E+003                   -8.29579803E-001     124.51  <-- SCF
      2  -3.19119547E+003                    5.51923729E-002     125.72  <-- SCF
      3  -3.19072539E+003                   -1.46901080E-002     126.84  <-- SCF
      4  -3.19083785E+003                    3.51434463E-003     127.92  <-- SCF
      5  -3.19087882E+003                    1.28048403E-003     128.92  <-- SCF
      6  -3.19087975E+003                    2.90336272E-005     130.02  <-- SCF
      7  -3.19087938E+003                   -1.15083332E-005     130.95  <-- SCF
      8  -3.19087908E+003                   -9.57411084E-006     131.77  <-- SCF
      9  -3.19087874E+003                   -1.05622260E-005     132.69  <-- SCF
     10  -3.19087879E+003                    1.67732971E-006     133.45  <-- SCF
     11  -3.19087906E+003                    8.39387382E-006     134.24  <-- SCF
     12  -3.19087954E+003                    1.48631509E-005     135.01  <-- SCF
     13  -3.19087982E+003                    8.98228540E-006     135.78  <-- SCF
     14  -3.19088014E+003                    9.96647171E-006     136.55  <-- SCF
     15  -3.19088030E+003                    4.79931809E-006     137.32  <-- SCF
     16  -3.19088056E+003                    8.14010069E-006     138.09  <-- SCF
     17  -3.19088071E+003                    4.71608982E-006     138.86  <-- SCF
     18  -3.19088083E+003                    3.79001209E-006     139.70  <-- SCF
     19  -3.19088095E+003                    3.76450759E-006     140.48  <-- SCF
     20  -3.19088104E+003                    2.72222648E-006     141.26  <-- SCF
     21  -3.19088114E+003                    3.33337537E-006     142.04  <-- SCF
     22  -3.19088118E+003                    1.17716529E-006     142.82  <-- SCF
     23  -3.19088118E+003                   -1.41153320E-007     143.61  <-- SCF
------------------------------------------------------------------------ <-- SCF
 
Final energy =  -3190.881176440     eV
(energy not corrected for finite basis set)
 
(SEDC) Total Energy Correction : -0.834207E+00 eV

Dispersion corrected final energy* =  -3191.715383846     eV
 
 ************************************** Forces **************************************
 *                                                                                  *
 *                           Cartesian components (eV/A)                            *
 * -------------------------------------------------------------------------------- *
 *                         x                    y                    z              *
 *                                                                                  *
 * H               1      0.05651              0.04060             -0.03734         *
 * H               2     -0.11126              0.05525             -0.00707         *
 * H               3     -0.00582              0.01248             -0.01271         *
 * H               4     -0.04203              0.00615             -0.03860         *
 * H               5      0.02876              0.02382             -0.00681         *
 * H               6     -0.02758              0.22571             -0.08544         *
 * H               7     -0.03947              0.03445              0.07994         *
 * H               8      0.06313             -0.00460              0.07327         *
 * H               9     -0.04691              0.08180              0.08243         *
 * H              10     -0.03563              0.10534             -0.12603         *
 * H              11     -0.02240             -0.73041              0.72130         *
 * H              12     -0.45381              0.48584              0.75546         *
 * H              13     -0.11172             -0.66890              0.29513         *
 * H              14      0.32197             -0.25223             -0.03293         *
 * H              15     -0.25296              0.11581             -0.07825         *
 * H              16     -0.05522             -0.02043             -0.02169         *
 * H              17     -0.01365             -0.01398             -0.07507         *
 * H              18     -0.03290              0.00524             -0.00843         *
 * H              19     -0.01755              0.00713             -0.01602         *
 * H              20     -0.00446              0.00409             -0.02379         *
 * C               1     -0.02863             -0.07743              0.05054         *
 * C               2      0.02650              0.07142              0.04660         *
 * C               3     -0.07778             -0.10018             -0.10002         *
 * C               4     -0.02017             -0.02930             -0.02191         *
 * C               5     -0.18487             -0.09313              0.19440         *
 * C               6      0.04716             -0.01617              0.10511         *
 * C               7      0.00292              0.04201             -0.03828         *
 * N               1      0.24263             -0.18632              0.03430         *
 * O               1      0.21644             -0.57292             -0.40499         *
 * O               2      0.58052              0.21545             -0.45974         *
 * O               3      0.11855              0.40635             -0.44215         *
 * Si              1     -0.12029              0.82704             -0.40123         *
 *                                                                                  *
 ************************************************************************************
  
 +------------+-------------+-------------+-----------------+ <-- min LBFGS
 |    Step    |   lambda    |   F.delta'  |    enthalpy     | <-- min LBFGS
 +------------+-------------+-------------+-----------------+ <-- min LBFGS
 |  previous  |    0.000000 |    2.006505 |    -3191.556548 | <-- min LBFGS
 | trial step |    0.668412 |   -6.350354 |    -3189.107013 | <-- min LBFGS
 |  line step |    0.160488 |   -0.526110 |    -3191.715384 | <-- min LBFGS
 +------------+-------------+-------------+-----------------+ <-- min LBFGS
  
 LBFGS: finished iteration     1 with enthalpy= -3.19171538E+003 eV
  
 +-----------+-----------------+-----------------+------------+-----+ <-- LBFGS
 | Parameter |      value      |    tolerance    |    units   | OK? | <-- LBFGS
 +-----------+-----------------+-----------------+------------+-----+ <-- LBFGS
 |  dE/ion   |   4.963614E-003 |   2.000000E-005 |         eV | No  | <-- LBFGS
 |  |F|max   |   1.026772E+000 |   5.000000E-002 |       eV/A | No  | <-- LBFGS
 |  |dR|max  |   6.352846E-002 |   2.000000E-003 |          A | No  | <-- LBFGS
 +-----------+-----------------+-----------------+------------+-----+ <-- LBFGS
  

================================================================================
 Starting LBFGS iteration          2 ...
================================================================================
  
 +------------+-------------+-------------+-----------------+ <-- min LBFGS
 |    Step    |   lambda    |   F.delta'  |    enthalpy     | <-- min LBFGS
 +------------+-------------+-------------+-----------------+ <-- min LBFGS
 |  previous  |    0.000000 |    0.783444 |    -3191.715384 | <-- min LBFGS
 +------------+-------------+-------------+-----------------+ <-- min LBFGS
  

--------------------------------------------------------------------------------
 LBFGS: starting iteration         2 with trial guess (lambda=  1.000000)
--------------------------------------------------------------------------------
 
                           -------------------------------
                                     Cell Contents
                           -------------------------------
 
            xxxxxxxxxxxxxxxxxxxxxxxxxxxxxxxxxxxxxxxxxxxxxxxxxxxxxxxxxxxxxxxxx
            x  Element         Atom        Fractional coordinates of atoms  x
            x                 Number           u          v          w      x
            x---------------------------------------------------------------x
            x  H                 1         0.381819   0.426741   0.552123   x
            x  H                 2         0.496853   0.422156   0.534189   x
            x  H                 3         0.422877   0.541179   0.569155   x
            x  H                 4         0.539026   0.535067   0.551112   x
            x  H                 5         0.297632   0.411211   0.503987   x
            x  H                 6         0.318634   0.469563   0.475293   x
            x  H                 7         0.389157   0.374774   0.459465   x
            x  H                 8         0.441864   0.351610   0.493314   x
            x  H                 9         0.563616   0.389100   0.455351   x
            x  H                10         0.575229   0.432849   0.487745   x
            x  H                11         0.437388   0.517760   0.407017   x
            x  H                12         0.659864   0.504320   0.420324   x
            x  H                13         0.507732   0.600160   0.467765   x
            x  H                14         0.344751   0.515700   0.521778   x
            x  H                15         0.453871   0.515340   0.503833   x
            x  H                16         0.467409   0.448918   0.602548   x
            x  H                17         0.582973   0.441422   0.584398   x
            x  H                18         0.598152   0.506931   0.631096   x
            x  H                19         0.511520   0.564612   0.618026   x
            x  H                20         0.628335   0.556447   0.600127   x
            x  C                 1         0.440285   0.455543   0.541963   x
            x  C                 2         0.481884   0.506723   0.562815   x
            x  C                 3         0.353335   0.438835   0.492032   x
            x  C                 4         0.427990   0.393365   0.478716   x
            x  C                 5         0.524801   0.425093   0.468858   x
            x  C                 6         0.525376   0.476401   0.590894   x
            x  C                 7         0.568330   0.529467   0.611122   x
            x  N                 1         0.401054   0.480933   0.515941   x
            x  O                 1         0.633911   0.525496   0.435864   x
            x  O                 2         0.498938   0.555921   0.472621   x
            x  O                 3         0.436008   0.487511   0.421498   x
            x  Si                1         0.525009   0.501253   0.445812   x
            xxxxxxxxxxxxxxxxxxxxxxxxxxxxxxxxxxxxxxxxxxxxxxxxxxxxxxxxxxxxxxxxx
 
 
------------------------------------------------------------------------ <-- SCF
SCF loop      Energy                           Energy gain       Timer   <-- SCF
                                               per atom          (sec)   <-- SCF
------------------------------------------------------------------------ <-- SCF
Initial  -3.22506145E+003                                        144.96  <-- SCF
      1  -3.18864090E+003                   -1.13814199E+000     145.79  <-- SCF
      2  -3.19003699E+003                    4.36276900E-002     147.03  <-- SCF
      3  -3.18971244E+003                   -1.01421961E-002     148.14  <-- SCF
      4  -3.18985452E+003                    4.44013895E-003     149.20  <-- SCF
      5  -3.18986495E+003                    3.25760397E-004     150.34  <-- SCF
      6  -3.18986534E+003                    1.22719985E-005     151.31  <-- SCF
      7  -3.18986501E+003                   -1.02779239E-005     152.23  <-- SCF
      8  -3.18986434E+003                   -2.10255918E-005     153.15  <-- SCF
[...]
 * H              20     -0.00491             -0.00016             -0.00023         *
 * C               1     -0.00324              0.00089             -0.00274         *
 * C               2     -0.00536              0.00249             -0.00502         *
 * C               3      0.00655             -0.00539             -0.00364         *
 * C               4      0.00451              0.00716              0.00382         *
 * C               5      0.00801             -0.00610             -0.01009         *
 * C               6      0.01000              0.01297              0.00073         *
 * C               7      0.00049             -0.00438              0.01338         *
 * N               1      0.00087             -0.00375              0.00179         *
 * O               1     -0.00764              0.00102             -0.00431         *
 * O               2     -0.00273             -0.00133              0.00339         *
 * O               3      0.00651              0.00277             -0.00073         *
 * Si              1     -0.00228             -0.00977              0.00302         *
 *                                                                                  *
 ************************************************************************************
 
 Pseudo atomic calculation performed for H 1s1
 
 Converged in 13 iterations to a total energy of -12.4790 eV
 
 Pseudo atomic calculation performed for C 2s2 2p2
 
 Converged in 17 iterations to a total energy of -148.5208 eV
 
 Pseudo atomic calculation performed for N 2s2 2p3
 
 Converged in 21 iterations to a total energy of -268.1820 eV
 
 Pseudo atomic calculation performed for O 2s2 2p4
 
 Converged in 23 iterations to a total energy of -432.6536 eV
 
 Pseudo atomic calculation performed for Si 3s2 3p2
 
 Converged in 11 iterations to a total energy of -165.0683 eV
Charge spilling parameter for spin component 1 = 1.52%
 
            Orbital Populations       
     Ion    Atom   Orbital             Charge
  -------------------------------------------
      H     1      S                    0.694
      H     2      S                    0.710
      H     3      S                    0.739
      H     4      S                    0.733
      H     5      S                    0.684
      H     6      S                    0.692
      H     7      S                    0.677
      H     8      S                    0.714
      H     9      S                    0.689
      H    10      S                    0.747
      H    11      S                    0.456
      H    12      S                    0.454
      H    13      S                    0.453
      H    14      S                    0.514
      H    15      S                    0.561
      H    16      S                    0.724
      H    17      S                    0.730
      H    18      S                    0.700
      H    19      S                    0.727
      H    20      S                    0.736
      C     1      S                    1.289
      C     1      Px                   1.149
      C     1      Py                   1.073
      C     1      Pz                   0.879
      C     2      S                    1.295
      C     2      Px                   1.154
      C     2      Py                   1.052
      C     2      Pz                   1.014
      C     3      S                    1.301
      C     3      Px                   1.097
      C     3      Py                   1.032
      C     3      Pz                   0.991
      C     4      S                    1.303
      C     4      Px                   0.969
      C     4      Py                   1.080
      C     4      Pz                   1.185
      C     5      S                    1.401
      C     5      Px                   1.081
      C     5      Py                   1.263
      C     5      Pz                   1.223
      C     6      S                    1.304
      C     6      Px                   1.150
      C     6      Py                   1.083
      C     6      Pz                   0.974
      C     7      S                    1.399
      C     7      Px                   1.170
      C     7      Py                   1.086
      C     7      Pz                   1.137
      N     1      S                    1.574
      N     1      Px                   1.394
      N     1      Py                   1.358
      N     1      Pz                   1.274
      O     1      S                    1.855
      O     1      Px                   1.740
      O     1      Py                   1.857
      O     1      Pz                   1.636
      O     2      S                    1.846
      O     2      Px                   1.907
      O     2      Py                   1.533
      O     2      Pz                   1.807
      O     3      S                    1.854
      O     3      Px                   1.800
      O     3      Py                   1.795
      O     3      Pz                   1.644
     Si     1      S                    0.733
     Si     1      Px                   0.323
     Si     1      Py                   0.438
     Si     1      Pz                   0.356
  -------------------------------------------
                           Total:      74.000
  -------------------------------------------
 
     Atomic Populations (Mulliken)
     -----------------------------
Species          Ion     s       p       d       f      Total   Charge (e)
==========================================================================
  H               1     0.694   0.000   0.000   0.000   0.694     0.306
  H               2     0.710   0.000   0.000   0.000   0.710     0.290
  H               3     0.739   0.000   0.000   0.000   0.739     0.261
  H               4     0.733   0.000   0.000   0.000   0.733     0.267
  H               5     0.684   0.000   0.000   0.000   0.684     0.316
  H               6     0.692   0.000   0.000   0.000   0.692     0.308
  H               7     0.677   0.000   0.000   0.000   0.677     0.323
  H               8     0.714   0.000   0.000   0.000   0.714     0.286
  H               9     0.689   0.000   0.000   0.000   0.689     0.311
  H              10     0.747   0.000   0.000   0.000   0.747     0.253
  H              11     0.456   0.000   0.000   0.000   0.456     0.544
  H              12     0.454   0.000   0.000   0.000   0.454     0.546
  H              13     0.453   0.000   0.000   0.000   0.453     0.547
  H              14     0.514   0.000   0.000   0.000   0.514     0.486
  H              15     0.561   0.000   0.000   0.000   0.561     0.439
  H              16     0.724   0.000   0.000   0.000   0.724     0.276
  H              17     0.730   0.000   0.000   0.000   0.730     0.270
  H              18     0.700   0.000   0.000   0.000   0.700     0.300
  H              19     0.727   0.000   0.000   0.000   0.727     0.273
  H              20     0.736   0.000   0.000   0.000   0.736     0.264
  C               1     1.289   3.101   0.000   0.000   4.391    -0.391
  C               2     1.295   3.219   0.000   0.000   4.515    -0.515
  C               3     1.301   3.120   0.000   0.000   4.421    -0.421
  C               4     1.303   3.235   0.000   0.000   4.538    -0.538
  C               5     1.401   3.568   0.000   0.000   4.969    -0.969
  C               6     1.304   3.207   0.000   0.000   4.512    -0.512
  C               7     1.399   3.393   0.000   0.000   4.792    -0.792
  N               1     1.574   4.027   0.000   0.000   5.600    -0.600
  O               1     1.855   5.233   0.000   0.000   7.088    -1.088
  O               2     1.846   5.247   0.000   0.000   7.093    -1.093
  O               3     1.854   5.239   0.000   0.000   7.093    -1.093
  Si              1     0.733   1.117   0.000   0.000   1.851     2.149
==========================================================================
 
                 Bond                   Population      Length (A)
======================================================================
              H 12 -- O 1                    0.53        0.96881
              H 11 -- O 3                    0.53        0.97002
              H 13 -- O 2                    0.52        0.97058
              H 14 -- N 1                    0.68        1.02827
              H 15 -- N 1                    0.66        1.05217
              H 2  -- C 1                    0.87        1.09668
              H 18 -- C 7                    0.81        1.09739
              H 5  -- C 3                    0.85        1.09820
              H 1  -- C 1                    0.85        1.09899
              H 6  -- C 3                    0.85        1.09936
              H 7  -- C 4                    0.84        1.09952
              H 19 -- C 7                    0.81        1.09991
              H 8  -- C 4                    0.85        1.09994
              H 20 -- C 7                    0.81        1.10010
              H 9  -- C 5                    0.82        1.10130
              H 17 -- C 6                    0.84        1.10137
              H 16 -- C 6                    0.84        1.10243
              H 4  -- C 2                    0.85        1.10273
              H 10 -- C 5                    0.83        1.10356
              H 3  -- C 2                    0.85        1.10461
               C 1 -- N 1                    0.52        1.50169
               C 3 -- N 1                    0.51        1.51009
               C 1 -- C 2                    0.71        1.52081
               C 3 -- C 4                    0.69        1.52519
               C 6 -- C 7                    0.65        1.52834
               C 2 -- C 6                    0.69        1.53011
               C 4 -- C 5                    0.64        1.54295
               O 1 -- Si 1                   0.53        1.63627
               O 3 -- Si 1                   0.51        1.64135
              H 14 -- H 15                  -0.11        1.65021
               O 2 -- Si 1                   0.43        1.67838
              H 15 -- O 2                    0.10        1.75192
              H 9  -- H 10                  -0.10        1.75266
              H 7  -- H 8                   -0.11        1.76366
              H 16 -- H 17                  -0.12        1.76848
              H 3  -- H 4                   -0.12        1.77220
              H 18 -- H 19                  -0.10        1.77330
              H 18 -- H 20                  -0.10        1.77768
              H 19 -- H 20                  -0.11        1.77778
              H 1  -- H 2                   -0.11        1.77885
              H 5  -- H 6                   -0.10        1.79129
               C 5 -- Si 1                   0.63        1.87041
              H 14 -- C 1                   -0.13        2.06176
              H 14 -- C 3                   -0.14        2.07165
              H 15 -- C 3                   -0.12        2.07722
              H 6  -- N 1                   -0.12        2.08819
              H 7  -- C 3                   -0.13        2.10196
              H 2  -- N 1                   -0.11        2.10349
              H 1  -- N 1                   -0.11        2.10939
              H 5  -- N 1                   -0.11        2.11578
              H 15 -- C 1                   -0.11        2.12567
              H 4  -- C 1                   -0.14        2.15151
              H 17 -- C 2                   -0.14        2.15728
              H 3  -- C 6                   -0.12        2.15856
              H 8  -- C 3                   -0.14        2.15894
              H 3  -- C 1                   -0.13        2.16217
              H 16 -- C 2                   -0.13        2.16220
              H 9  -- C 4                   -0.11        2.16266
              H 4  -- C 6                   -0.12        2.16332
              H 17 -- C 7                   -0.13        2.16427
              H 7  -- C 5                   -0.12        2.17237
              H 6  -- C 4                   -0.12        2.17238
              H 20 -- C 6                   -0.12        2.17416
              H 16 -- C 7                   -0.13        2.17456
              H 5  -- C 4                   -0.13        2.17603
              H 8  -- C 5                   -0.14        2.17669
              H 18 -- C 6                   -0.11        2.18053
              H 2  -- C 2                   -0.12        2.18273
              H 19 -- C 6                   -0.12        2.18551
              H 1  -- C 2                   -0.12        2.18567
              H 10 -- C 4                   -0.11        2.18952
              H 2  -- H 10                  -0.03        2.27622
              H 12 -- Si 1                  -0.13        2.28103
              H 11 -- Si 1                  -0.13        2.29892
              H 6  -- H 15                  -0.03        2.30269
              H 13 -- Si 1                  -0.12        2.31590
              H 6  -- H 14                  -0.03        2.34175
              H 5  -- H 14                  -0.03        2.36350
              H 6  -- H 7                   -0.05        2.38396
              H 2  -- H 8                   -0.03        2.38423
              H 3  -- H 14                  -0.01        2.39952
              H 1  -- H 14                  -0.03        2.40351
              H 5  -- H 8                   -0.04        2.41797
              H 7  -- H 9                   -0.04        2.41938
              H 10 -- Si 1                  -0.14        2.42845
              H 8  -- H 10                  -0.05        2.44764
              H 9  -- Si 1                  -0.12        2.44810
              H 2  -- H 15                  -0.03        2.46011
               C 2 -- N 1                   -0.14        2.47377
              H 4  -- H 15                  -0.01        2.49221
              H 2  -- H 4                   -0.04        2.50015
              H 3  -- H 16                  -0.03        2.50117
              H 13 -- H 15                  -0.01        2.50701
              H 17 -- H 18                  -0.03        2.50889
              H 5  -- H 7                   -0.02        2.51073
              H 4  -- H 17                  -0.03        2.51524
              H 17 -- H 20                  -0.03        2.51734
              H 16 -- H 18                  -0.03        2.52131
               C 2 -- C 7                   -0.16        2.52692
              H 10 -- H 15                  -0.01        2.52824
               C 4 -- N 1                   -0.12        2.53231
              H 4  -- H 20                  -0.01        2.53331
               C 1 -- C 6                   -0.14        2.53624
              H 16 -- H 19                  -0.03        2.54297
              H 8  -- H 9                   -0.02        2.54440
              H 1  -- H 3                   -0.03        2.55035
               C 1 -- C 3                   -0.13        2.57001
              H 3  -- H 19                  -0.01        2.57495
              H 1  -- H 16                  -0.01        2.59074
              H 1  -- H 5                   -0.01        2.59753
               C 3 -- C 5                   -0.15        2.59787
              H 2  -- H 17                  -0.01        2.61190
               O 1 -- O 2                   -0.08        2.61840
              H 14 -- C 2                   -0.04        2.63140
              H 3  -- N 1                   -0.03        2.68643
              H 15 -- C 2                   -0.04        2.69597
              H 15 -- C 5                   -0.02        2.70853
              H 4  -- N 1                   -0.02        2.71599
              H 2  -- C 4                   -0.03        2.72684
              H 6  -- O 3                   -0.00        2.73038
               N 1 -- O 2                   -0.11        2.73872
              H 4  -- C 7                   -0.04        2.74000
              H 17 -- C 1                   -0.04        2.75048
               O 1 -- O 3                   -0.07        2.75803
              H 3  -- C 7                   -0.04        2.75825
               O 2 -- O 3                   -0.07        2.76182
               C 5 -- O 2                   -0.12        2.76670
              H 13 -- O 1                   -0.01        2.76863
              H 16 -- C 1                   -0.04        2.77586
              H 1  -- C 3                   -0.03        2.77720
              H 20 -- C 2                   -0.04        2.77855
              H 15 -- C 4                   -0.02        2.78022
              H 15 -- Si 1                  -0.04        2.78483
              H 2  -- C 3                   -0.02        2.78805
              H 19 -- C 2                   -0.04        2.79913
              H 1  -- C 6                   -0.03        2.80305
               C 5 -- O 3                   -0.11        2.80967
              H 10 -- O 2                   -0.01        2.81949
              H 5  -- C 1                   -0.03        2.83508
              H 2  -- C 6                   -0.03        2.84482
              H 6  -- O 2                   -0.00        2.87917
              H 10 -- N 1                   -0.01        2.89854
              H 8  -- N 1                   -0.01        2.91531
               C 4 -- Si 1                  -0.12        2.91550
              H 2  -- C 5                   -0.02        2.93372
              H 6  -- C 5                   -0.02        2.94111
              H 8  -- C 1                   -0.02        2.94422
              H 2  -- H 14                   0.04        2.94542
              H 5  -- H 15                   0.03        2.96450
              H 12 -- O 3                   -0.01        2.97908
              H 3  -- H 15                  -0.00        2.97918
               C 5 -- O 1                   -0.08        2.98224
              H 4  -- H 14                  -0.00        2.98680
              H 6  -- Si 1                  -0.02        2.98695
              H 11 -- O 1                   -0.01        2.99123
======================================================================
 
 
     Hirshfeld Analysis
     ------------------
Species   Ion     Hirshfeld Charge (e)
======================================
  H        1                 0.07
  H        2                 0.06
  H        3                 0.05
  H        4                 0.05
  H        5                 0.07
  H        6                 0.06
  H        7                 0.07
  H        8                 0.05
  H        9                 0.06
  H       10                 0.04
  H       11                 0.18
  H       12                 0.18
  H       13                 0.18
  H       14                 0.17
  H       15                 0.12
  H       16                 0.05
  H       17                 0.04
  H       18                 0.05
  H       19                 0.05
  H       20                 0.04
  C        1                 0.01
  C        2                -0.06
  C        3                 0.01
  C        4                -0.05
  C        5                -0.15
  C        6                -0.05
  C        7                -0.10
  N        1                 0.02
  O        1                -0.27
  O        2                -0.25
  O        3                -0.27
  Si       1                 0.48
======================================
 

Writing analysis data to Conf_0016.castep_bin

Writing model to Conf_0016.check
 
 A BibTeX formatted list of references used in this run has been written to 
 Conf_0016.bib
 
Initialisation time =     24.76 s
Calculation time    =    896.99 s
Finalisation time   =      1.19 s
Total time          =    922.94 s
Peak Memory Use     = 7912104 kB
 
Overall parallel efficiency rating: Satisfactory (66%)
 
Data was distributed by:-
G-vector (48-way); efficiency rating: Satisfactory (66%)
High Water Mark     = 1772800 kB
