 Job started on host drago31060180.mgmt.cc.csic.es
 at Sun Mar 31 00:50:16 2024

 +-------------------------------------------------+
 |                                                 |
 |      CCC   AA    SSS  TTTTT  EEEEE  PPPP        |
 |     C     A  A  S       T    E      P   P       |
 |     C     AAAA   SS     T    EEE    PPPP        |
 |     C     A  A     S    T    E      P           |
 |      CCC  A  A  SSS     T    EEEEE  P           |
 |                                                 |
 +-------------------------------------------------+
 |                                                 |
 | Materials Studio CASTEP version 2024            |
 | Ab Initio Total Energy Program                  |
 |                                                 |
 | Authors:                                        |
 | M. Segall, M. Probert, C. Pickard, P. Hasnip,   |
 | S. Clark, K. Refson, J. R. Yates,               |
 | A. Bartok-Partay, M. Payne                      |
 |                                                 |
 | Contributors:                                   |
 | P. Lindan, P. Haynes, J. White, V. Milman,      |
 | N. Govind, M. Gibson, P. Tulip, V. Cocula,      |
 | B. Montanari, D. Quigley, M. Glover,            |
 | L. Bernasconi, A. Perlov, M. Plummer,           |
 | E. McNellis, J. Meyer, J. Gale, D. Jochym       |
 | J. Aarons, B. Walker, R. Gillen, D. Jones       |
 | T. Green, I. J. Bush, C. J. Armstrong,          |
 | E. J. Higgins, E. L. Brown, M. S. McFly,        |
 | J. Wilkins, B-C. Shih, P. J. P. Byrne,          |
 | R. J. Maurer, J. C. Womack, J. Dziedzic,        |
 | L. LeBlanc, T. K. Stenczel, J. Kermode,         |
 | S. Sturniolo, B. Shi, B. Durham, M. Evans,      |
 | M. J. Smith, A. Tamerus, Z. Hawkhead,           |
 | V. Ravindran, T. Hollins, S. A. Joyce,          |
 | R. T. Strong, A. M. Reilly                      |
 |                                                 |
 | Copyright (c) 2000 - 2023                       |
 |                                                 |
 | Please cite                                     |
 |                                                 |
 |     "First principles methods using CASTEP"     |
 |                                                 |
 |         Zeitschrift fuer Kristallographie       |
 |           220(5-6) pp. 567-570 (2005)           |
 |                                                 |
 | S. J. Clark, M. D. Segall, C. J. Pickard,       |
 | P. J. Hasnip, M. J. Probert, K. Refson,         |
 | M. C. Payne                                     |
 |                                                 |
 |       in all publications arising from          |
 |              your use of CASTEP                 |
 |                                                 |
 +-------------------------------------------------+
 |                                                 |
 |              http://www.castep.org              |
 |                                                 |
 +-------------------------------------------------+
 
 
 This version was compiled for x86_64-rhel7-intel19.0 on Oct 24 2023
 Code version:    a9f326b
 Intel(R) Math Kernel Library Version 2019.0.4 
 Fundamental constants values: CODATA 2018
 
License checkout of MS_castep successful
 
 
 Atomic calculation performed for H: 1s1
 
 Converged in 41 iterations to an ae energy of -12.488 eV
 
 Identity difference: 2.63E-05
 
   ============================================================                
   | Pseudopotential Report - Date of generation 31-03-2024   |                
   ------------------------------------------------------------                
   | Element: H Ionic charge:  1.00 Level of theory: PBE      |                
   | Atomic Solver: Koelling-Harmon                           |                
   |                                                          |                
   |               Reference Electronic Structure             |                
   |         Orbital         Occupation         Energy        |                
   |            1s              1.000           -0.239        |                
   |                                                          |                
   |                 Pseudopotential Definition               |                
   |        Beta     l      e      Rc     scheme   norm       |                
   |          1      0   -0.239   0.599     qc      0         |                
   |          2      0    0.250   0.599     qc      0         |                
   |         loc     1    0.000   0.599     pn      0         |                
   |                                                          |                
   | Augmentation charge Rinner = 0.421                       |                
   | No partial core correction                               |                
   ------------------------------------------------------------                
   | "1|0.6|9|10|15|10UU(qc=8)[]"                             |                
   ------------------------------------------------------------                
   |      Author: Chris J. Pickard, Cambridge University      |                
   ============================================================                
 
 Doing a self consistent calculation for the test configuration
 
 Atomic calculation performed for H: 1s1
 
 Converged in 41 iterations to an ae energy of -12.488 eV
 
 ---------------------------------------
 AE eigenvalue nl 10 =       -0.23860176
 ---------------------------------------
 PS eigenvalue nl 10 =       -0.23857601
 ---------------------------------------
 Maximum eigenvalue error:   2.57E-05
 
 Derived cutoff energies: C=   1 M=   6 F=  10 E=  20
 
 Checking for ghost states up to   1.51185 Ha
 
 No Ghost States Identified
 
 ***************************************
 
 Atomic calculation performed for C: 1s2 2s2 2p2
 
 Converged in 54 iterations to an ae energy of -1027.632 eV
 
 Identity difference: 2.37E-04
 
   ============================================================                
   | Pseudopotential Report - Date of generation 31-03-2024   |                
   ------------------------------------------------------------                
   | Element: C Ionic charge:  4.00 Level of theory: PBE      |                
   | Atomic Solver: Koelling-Harmon                           |                
   |                                                          |                
   |               Reference Electronic Structure             |                
   |         Orbital         Occupation         Energy        |                
   |            2s              2.000           -0.505        |                
   |            2p              2.000           -0.194        |                
   |                                                          |                
   |                 Pseudopotential Definition               |                
   |        Beta     l      e      Rc     scheme   norm       |                
   |          1      0   -0.505   1.395     qc      0         |                
   |          2      0    0.250   1.395     qc      0         |                
   |          3      1   -0.194   1.395     qc      0         |                
   |          4      1    0.250   1.395     qc      0         |                
   |         loc     2    0.000   1.395     pn      0         |                
   |                                                          |                
   | Augmentation charge Rinner = 0.983                       |                
   | Partial core correction Rc = 0.983                       |                
   ------------------------------------------------------------                
   | "2|1.4|11|12|14.7|20UU:21UU(qc=7)[]"                     |                
   ------------------------------------------------------------                
   |      Author: Chris J. Pickard, Cambridge University      |                
   ============================================================                
 
 Doing a self consistent calculation for the test configuration
 
 Atomic calculation performed for C: 1s2 2s2 2p2
 
 Converged in 54 iterations to an ae energy of -1027.632 eV
 
 ---------------------------------------
 AE eigenvalue nl 10 =      -10.04653081
 AE eigenvalue nl 20 =       -0.50533429
 AE eigenvalue nl 21 =       -0.19423807
 ---------------------------------------
 PS eigenvalue nl 20 =       -0.50531853
 PS eigenvalue nl 21 =       -0.19422214
 ---------------------------------------
 Maximum eigenvalue error:   1.59E-05
 
 Derived cutoff energies: C=   6 M=  10 F=  12 E=  16
 
 Checking for ghost states up to   1.47183 Ha
 
 No Ghost States Identified
 
 ***************************************
 
 Atomic calculation performed for N: 1s2 2s2 2p3
 
 Converged in 55 iterations to an ae energy of -1481.742 eV
 
 Identity difference: 2.27E-04
 
   ============================================================                
   | Pseudopotential Report - Date of generation 31-03-2024   |                
   ------------------------------------------------------------                
   | Element: N Ionic charge:  5.00 Level of theory: PBE      |                
   | Atomic Solver: Koelling-Harmon                           |                
   |                                                          |                
   |               Reference Electronic Structure             |                
   |         Orbital         Occupation         Energy        |                
   |            2s              2.000           -0.683        |                
   |            2p              3.000           -0.261        |                
   |                                                          |                
   |                 Pseudopotential Definition               |                
   |        Beta     l      e      Rc     scheme   norm       |                
   |          1      0   -0.683   1.100     qc      0         |                
   |          2      0    0.250   1.100     qc      0         |                
   |          3      1   -0.261   1.100     qc      0         |                
   |          4      1    0.250   1.100     qc      0         |                
   |         loc     2    0.000   1.100     pn      0         |                
   |                                                          |                
   | Augmentation charge Rinner = 0.769                       |                
   | Partial core correction Rc = 0.769                       |                
   ------------------------------------------------------------                
   | "2|1.1|12|16|19|20UU:21UU(qc=7)[]"                       |                
   ------------------------------------------------------------                
   |      Author: Chris J. Pickard, Cambridge University      |                
   ============================================================                
 
 Doing a self consistent calculation for the test configuration
 
 Atomic calculation performed for N: 1s2 2s2 2p3
 
 Converged in 55 iterations to an ae energy of -1481.742 eV
 
 ---------------------------------------
 AE eigenvalue nl 10 =      -14.13820921
 AE eigenvalue nl 20 =       -0.68290611
 AE eigenvalue nl 21 =       -0.26054797
 ---------------------------------------
 PS eigenvalue nl 20 =       -0.68291221
 PS eigenvalue nl 21 =       -0.26051708
 ---------------------------------------
 Maximum eigenvalue error:   3.09E-05
 
 Derived cutoff energies: C=  10 M=  15 F=  18 E=  23
 
 Checking for ghost states up to   1.48495 Ha
 
 No Ghost States Identified
 
 ***************************************
 
 Atomic calculation performed for O: 1s2 2s2 2p4
 
 Converged in 61 iterations to an ae energy of -2040.902 eV
 
 Identity difference: 4.10E-04
 
   ============================================================                
   | Pseudopotential Report - Date of generation 31-03-2024   |                
   ------------------------------------------------------------                
   | Element: O Ionic charge:  6.00 Level of theory: PBE      |                
   | Atomic Solver: Koelling-Harmon                           |                
   |                                                          |                
   |               Reference Electronic Structure             |                
   |         Orbital         Occupation         Energy        |                
   |            2s              2.000           -0.881        |                
   |            2p              4.000           -0.332        |                
   |                                                          |                
   |                 Pseudopotential Definition               |                
   |        Beta     l      e      Rc     scheme   norm       |                
   |          1      0   -0.881   1.100     qc      0         |                
   |          2      0    0.250   1.100     qc      0         |                
   |          3      1   -0.332   1.100     qc      0         |                
   |          4      1    0.250   1.100     qc      0         |                
   |         loc     2    0.000   1.100     pn      0         |                
   |                                                          |                
   | Augmentation charge Rinner = 0.769                       |                
   | Partial core correction Rc = 0.769                       |                
   ------------------------------------------------------------                
   | "2|1.1|14|18|21|20UU:21UU(qc=7)[]"                       |                
   ------------------------------------------------------------                
   |      Author: Chris J. Pickard, Cambridge University      |                
   ============================================================                
 
 Doing a self consistent calculation for the test configuration
 
 Atomic calculation performed for O: 1s2 2s2 2p4
 
 Converged in 61 iterations to an ae energy of -2040.902 eV
 
 ---------------------------------------
 AE eigenvalue nl 10 =      -18.91475256
 AE eigenvalue nl 20 =       -0.88057101
 AE eigenvalue nl 21 =       -0.33186952
 ---------------------------------------
 PS eigenvalue nl 20 =       -0.88059206
 PS eigenvalue nl 21 =       -0.33182157
 ---------------------------------------
 Maximum eigenvalue error:   4.80E-05
 
 Derived cutoff energies: C=  14 M=  17 F=  20 E=  22
 
 Checking for ghost states up to   1.49452 Ha
 
 No Ghost States Identified
 
 ***************************************
 
 Atomic calculation performed for Si: 1s2 2s2 2p6 3s2 3p2
 
 Converged in 54 iterations to an ae energy of -7886.857 eV
 
 Identity difference: 1.35E-04
 
   ============================================================                
   | Pseudopotential Report - Date of generation 31-03-2024   |                
   ------------------------------------------------------------                
   | Element: Si Ionic charge:  4.00 Level of theory: PBE     |                
   | Atomic Solver: Koelling-Harmon                           |                
   |                                                          |                
   |               Reference Electronic Structure             |                
   |         Orbital         Occupation         Energy        |                
   |            3s              2.000           -0.397        |                
   |            3p              2.000           -0.150        |                
   |                                                          |                
   |                 Pseudopotential Definition               |                
   |        Beta     l      e      Rc     scheme   norm       |                
   |          1      0   -0.397   1.797     qc      0         |                
   |          2      0    0.250   1.797     qc      0         |                
   |          3      1   -0.150   1.797     qc      0         |                
   |          4      1    0.250   1.797     qc      0         |                
   |          5      2    0.000   1.797     qc      0         |                
   |          6      2    0.250   1.797     qc      0         |                
   |         loc     3    0.000   1.797     pn      0         |                
   |                                                          |                
   | Augmentation charge Rinner = 1.255                       |                
   | Partial core correction Rc = 1.255                       |                
   ------------------------------------------------------------                
   | "3|1.8|3.6|5|7|30UU:31UU:32UU[]"                         |                
   ------------------------------------------------------------                
   |      Author: Chris J. Pickard, Cambridge University      |                
   ============================================================                
 
 Doing a self consistent calculation for the test configuration
 
 Atomic calculation performed for Si: 1s2 2s2 2p6 3s2 3p2
 
 Converged in 54 iterations to an ae energy of -7886.857 eV
 
 ---------------------------------------
 AE eigenvalue nl 10 =      -65.63192903
 AE eigenvalue nl 20 =       -5.12654326
 AE eigenvalue nl 21 =       -3.51173659
 AE eigenvalue nl 30 =       -0.39736430
 AE eigenvalue nl 31 =       -0.14998156
 ---------------------------------------
 PS eigenvalue nl 30 =       -0.39734922
 PS eigenvalue nl 31 =       -0.14996719
 ---------------------------------------
 Maximum eigenvalue error:   1.51E-05
 
 Derived cutoff energies: C=   1 M=   3 F=   6 E=   6
 
 Checking for ghost states up to   1.41161 Ha
 
 No Ghost States Identified
 
 ***************************************
 
 Pseudo atomic calculation performed for H 1s1
 
 Converged in 13 iterations to a total energy of -12.4790 eV
 
 Pseudo atomic calculation performed for C 2s2 2p2
 
 Converged in 17 iterations to a total energy of -148.5208 eV
 
 Pseudo atomic calculation performed for N 2s2 2p3
 
 Converged in 21 iterations to a total energy of -268.1820 eV
 
 Pseudo atomic calculation performed for O 2s2 2p4
 
 Converged in 23 iterations to a total energy of -432.6536 eV
 
 Pseudo atomic calculation performed for Si 3s2 3p2
 
 Converged in 11 iterations to a total energy of -165.0683 eV
 Calculation parallelised over 48 processes.
 Data is distributed by G-vector(48-way)

 ************************************ Title ************************************
 CASTEP calculation from BIOVIA Materials Studio 2024

 ***************************** General Parameters ******************************
  
 output verbosity                               : normal  (1)
 write checkpoint data to                       : Conf_0008.check
 type of calculation                            : geometry optimization
 stress calculation                             : off
 density difference calculation                 : off
 electron localisation func (ELF) calculation   : off
 Hirshfeld analysis                             : on
 polarisation (Berry phase) analysis            : off
 molecular orbital projected DOS                : off
 deltaSCF calculation                           : off
 unlimited duration calculation
 timing information                             : on
 memory usage estimate                          : on
 write extra output files                       : on
 write final potential to formatted file        : off
 write final density to formatted file          : off
 write BibTeX reference list                    : on
 write OTFG pseudopotential files               : on
 write electrostatic potential file             : on
 write bands file                               : on
 checkpoint writing                             : both castep_bin and check files
  
 output         length unit                     : A
 output           mass unit                     : amu
 output           time unit                     : ps
 output         charge unit                     : e
 output           spin unit                     : hbar/2
 output         energy unit                     : eV
 output          force unit                     : eV/A
 output       velocity unit                     : A/ps
 output       pressure unit                     : GPa
 output     inv_length unit                     : 1/A
 output      frequency unit                     : cm-1
 output force constant unit                     : eV/A**2
 output         volume unit                     : A**3
 output   IR intensity unit                     : (D/A)**2/amu
 output         dipole unit                     : D
 output         efield unit                     : eV/A/e
 output        entropy unit                     : J/mol/K
 output    efield chi2 unit                     : pm/V
  
 wavefunctions paging                           : none
 random number generator seed                   :    5024812
 data distribution                              : optimal for this architecture
 optimization strategy                          : balance speed and memory

 *********************** Exchange-Correlation Parameters ***********************
  
 using functional                               : Perdew Burke Ernzerhof
 relativistic treatment                         : Koelling-Harmon
 DFT+D: Semi-empirical dispersion correction    : on
 SEDC with                                      : G06 correction scheme

 ************************* Pseudopotential Parameters **************************
  
 pseudopotential representation                 : reciprocal space
 <beta|phi> representation                      : reciprocal space
 spin-orbit coupling                            : off

 **************************** Basis Set Parameters *****************************
  
 plane wave basis set cut-off                   :   600.0000   eV
 size of standard grid                          :     1.5000
 size of   fine   gmax                          :    18.8237   1/A
 largest prime factor in FFT                    :          5
 finite basis set correction                    : none

 **************************** Electronic Parameters ****************************
  
 number of  electrons                           :  74.00    
 net charge of system                           : +1.000    
 treating system as non-spin-polarized
 number of bands                                :         37

 ********************* Electronic Minimization Parameters **********************
  
 Method: Treating system as non-metallic,
         and number of  SD  steps               :          1
         and number of  CG  steps               :          4
  
 total energy / atom convergence tol.           : 0.2000E-05   eV
 eigen-energy convergence tolerance             : 0.1000E-05   eV
 max force / atom convergence tol.              : ignored
 convergence tolerance window                   :          3   cycles
 max. number of SCF cycles                      :        100
 periodic dipole correction                     : NONE

 ************************** Density Mixing Parameters **************************
  
 density-mixing scheme                          : Pulay
 max. length of mixing history                  :         20
 charge density mixing amplitude                : 0.5000    
 cut-off energy for mixing                      :  600.0       eV
 charge density mixing g-vector                 :  1.500       1/A

 *********************** Population Analysis Parameters ************************
  
 Population analysis with cutoff                :  3.000       A
 Population analysis output                     : summary and pdos components

 ********************** Geometry Optimization Parameters ***********************
  
 optimization method                            : LBFGS
 max. no. of LBFGS updates                      : unbounded
 preconditioned LBFGS is activated
 preconditioner type                            : EXP
     stabilization constant                     :     0.1000
     parameter A                                :     3.0000
     nearest neighbor distance                  : automatic
     cut-off distance                           : automatic
     parameter mu                               : automatic
 variable cell method                           : fixed basis quality
 max. number of steps                           :        300
 estimated bulk modulus                         :  500.0       GPa
 estimated <frequency>                          :  1668.       cm-1
 geom line minimiser                            : on
 with line minimiser tolerance                  :     0.4000
 total energy convergence tolerance             : 0.2000E-04   eV/atom
        max ionic |force| tolerance             : 0.5000E-01   eV/A
 max ionic |displacement| tolerance             : 0.2000E-02   A
   max |stress component| tolerance             : 0.1000       GPa
 convergence tolerance window                   :          2   steps
 backup results every                           :          5   steps
 write geom trajectory file                     : on

 *******************************************************************************
  
 
                           -------------------------------
                                      Unit Cell
                           -------------------------------
        Real Lattice(A)                      Reciprocal Lattice(1/A)
    13.4840002    -0.0000006    -0.0000006        0.465973392   0.000000000   0.000000000
     0.0000000    20.4006996    -0.0000009        0.000000013   0.307988717   0.000000000
     0.0000000     0.0000000    45.0000000        0.000000006   0.000000006   0.139626340
 
                       Lattice parameters(A)       Cell Angles
                    a =     13.484000          alpha =   90.000003
                    b =     20.400700          beta  =   90.000003
                    c =     45.000000          gamma =   90.000003
 
                       Current cell volume =         12378.736702       A**3
                                   density =             0.015698   AMU/A**3
                                           =             0.026068     g/cm^3
 
                           -------------------------------
                                     Cell Contents
                           -------------------------------
                         Total number of ions in cell =   32
                      Total number of species in cell =    5
                        Max number of any one species =   20
 
            xxxxxxxxxxxxxxxxxxxxxxxxxxxxxxxxxxxxxxxxxxxxxxxxxxxxxxxxxxxx
            x  Element    Atom        Fractional coordinates of atoms  x
            x            Number           u          v          w      x
            x----------------------------------------------------------x
            x  H            1         0.522774   0.450440   0.549380   x 
            x  H            2         0.614756   0.512298   0.556421   x 
            x  H            3         0.415780   0.498358   0.590147   x 
            x  H            4         0.507536   0.558872   0.597278   x 
            x  H            5         0.606992   0.545235   0.506739   x 
            x  H            6         0.516317   0.482228   0.500302   x 
            x  H            7         0.482540   0.629798   0.488007   x 
            x  H            8         0.398303   0.565852   0.479486   x 
            x  H            9         0.604204   0.586046   0.451182   x 
            x  H           10         0.489288   0.604707   0.434536   x 
            x  H           11         0.606709   0.396188   0.446388   x 
            x  H           12         0.538050   0.500399   0.383929   x 
            x  H           13         0.390796   0.421625   0.420104   x 
            x  H           14         0.406901   0.538166   0.535724   x 
            x  H           15         0.491448   0.595210   0.542158   x 
            x  H           16         0.537836   0.409979   0.603457   x 
            x  H           17         0.629319   0.470259   0.610641   x 
            x  H           18         0.550014   0.432612   0.657704   x 
            x  H           19         0.431245   0.456593   0.644476   x 
            x  H           20         0.523612   0.516959   0.651779   x 
            x  C            1         0.535006   0.500605   0.557778   x 
            x  C            2         0.496269   0.508131   0.589458   x 
            x  C            3         0.526959   0.534833   0.504866   x 
            x  C            4         0.477941   0.577878   0.481206   x 
            x  C            5         0.525842   0.570507   0.450105   x 
            x  C            6         0.548539   0.461079   0.610965   x 
            x  C            7         0.511231   0.467244   0.642914   x 
            x  N            1         0.480361   0.548080   0.536063   x 
            x  O            1         0.568431   0.479548   0.400422   x 
            x  O            2         0.405529   0.459310   0.431651   x 
            x  O            3         0.580303   0.434687   0.455277   x 
            x  Si           1         0.519937   0.484783   0.433407   x 
            xxxxxxxxxxxxxxxxxxxxxxxxxxxxxxxxxxxxxxxxxxxxxxxxxxxxxxxxxxxx
 
 
                         No user defined ionic velocities
 
                           -------------------------------
                                   Details of Species
                           -------------------------------
 
                               Mass of species in AMU
                                    H    1.0080000
                                    C   12.0109997
                                    N   14.0070000
                                    O   15.9989996
                                    Si   28.0849991
 
                          Electric Quadrupole Moment (Barn)
                                    H    0.0028600 Isotope  2
                                    C    0.0332700 Isotope 11
                                    N    0.0204400 Isotope 14
                                    O   -0.0255800 Isotope 17
                                    Si    1.0000000 No Isotope Defined
 
                          Files used for pseudopotentials:
                                    H 1|0.6|9|10|15|10UU(qc=8)[]
                                    C 2|1.4|11|12|14.7|20UU:21UU(qc=7)[]
                                    N 2|1.1|12|16|19|20UU:21UU(qc=7)[]
                                    O 2|1.1|14|18|21|20UU:21UU(qc=7)[]
                                    Si 3|1.8|3.6|5|7|30UU:31UU:32UU[]
 
                           -------------------------------
                              k-Points For BZ Sampling
                           -------------------------------
                       MP grid size for SCF calculation is  1  1  1
                            with an offset of   0.000  0.000  0.000
                       Number of kpoints used =             1
 
                           -------------------------------
                               Symmetry and Constraints
                           -------------------------------
 
                      Maximum deviation from symmetry =  0.00000         ANG
 
                      Number of symmetry operations   =           1
                      Number of nonlinear constraints =           3
         There are no ionic constraints specified or generated for this cell
                      Point group of crystal =     1: C1, 1, 1
                      Space group of crystal =     1: P1, P 1
 
             Set iprint > 1 for details on symmetry rotations/translations
 
                         Centre of mass is NOT constrained
 
                         Number of cell constraints= 6
                         Cell constraints are:  0 0 0 0 0 0
 
                         External pressure/stress (GPa)
                          0.00000   0.00000   0.00000
                                    0.00000   0.00000
                                              0.00000
 
                                --------------------
                                  DFT-D parameters
                                --------------------
 
                          Dispersion-correction scheme : G06       
                        Parameter s6 :   0.750000 (default)
                        Parameter d  :  20.000000 (default)
 
        xxxxxxxxxxxxxxxxxxxxxxxxxxxxxxxxxxxxxxxxxxxxxxxxxxxxxxxxxxxxxxxxxxxx
        x              Atomic DFT-D parameters                             x
        x  Species      C6            R0                                   x
        x               eV A^6        Ang                                  x
        x------------------------------------------------------------------x
        x  H             1.4510       1.0010   (default)                   x
        x  C            18.1375       1.4520   (default)                   x
        x  N            12.7481       1.3970   (default)                   x
        x  O             7.2550       1.3420   (default)                   x
        x  Si           95.6622       1.7160   (default)                   x
        xxxxxxxxxxxxxxxxxxxxxxxxxxxxxxxxxxxxxxxxxxxxxxxxxxxxxxxxxxxxxxxxxxxx
 
 
+---------------- MEMORY AND SCRATCH DISK ESTIMATES PER PROCESS --------------+
|                                                     Memory          Disk    |
| Baseline code, static data and system overhead     6530.0 MB         0.0 MB |
| BLAS internal memory storage                          0.0 MB         0.0 MB |
| Model and support data                              540.6 MB         0.0 MB |
| Electronic energy minimisation requirements          31.8 MB         0.0 MB |
| Force calculation requirements                        6.8 MB         0.0 MB |
|                                               ----------------------------- |
| Approx. total storage required per process         7102.3 MB         0.0 MB |
|                                                                             |
| Requirements will fluctuate during execution and may exceed these estimates |
+-----------------------------------------------------------------------------+
Calculating approximate eigenstates for fixed initial Hamiltonian
Cut-off for approx. calculation is  119.774 eV
Improving approx. states at cut-off of  300.000 eV
Resetting cut-off to  600.000 eV
Calculating total energy with cut-off of  600.000 eV.
------------------------------------------------------------------------ <-- SCF
SCF loop      Energy                           Energy gain       Timer   <-- SCF
                                               per atom          (sec)   <-- SCF
------------------------------------------------------------------------ <-- SCF
Initial  -2.92500346E+003                                         31.39  <-- SCF
      1  -3.20282073E+003                    8.68178963E+000      32.19  <-- SCF
      2  -3.20308359E+003                    8.21453393E-003      32.98  <-- SCF
      3  -3.19287185E+003                   -3.19117155E-001      34.11  <-- SCF
      4  -3.19166422E+003                   -3.77381835E-002      35.30  <-- SCF
      5  -3.19106551E+003                   -1.87099422E-002      36.31  <-- SCF
      6  -3.19097655E+003                   -2.77992412E-003      37.58  <-- SCF
      7  -3.19092285E+003                   -1.67791506E-003      38.60  <-- SCF
      8  -3.19091503E+003                   -2.44372246E-004      39.70  <-- SCF
      9  -3.19090770E+003                   -2.29249206E-004      40.73  <-- SCF
     10  -3.19089769E+003                   -3.12927379E-004      41.76  <-- SCF
     11  -3.19087431E+003                   -7.30597803E-004      42.82  <-- SCF
     12  -3.19081669E+003                   -1.80048133E-003      43.82  <-- SCF
     13  -3.19075210E+003                   -2.01844024E-003      44.84  <-- SCF
     14  -3.19067935E+003                   -2.27348290E-003      45.87  <-- SCF
     15  -3.19062965E+003                   -1.55316822E-003      46.86  <-- SCF
     16  -3.19059468E+003                   -1.09262540E-003      47.84  <-- SCF
     17  -3.19056289E+003                   -9.93704194E-004      48.82  <-- SCF
     18  -3.19053195E+003                   -9.66689598E-004      49.81  <-- SCF
     19  -3.19050677E+003                   -7.86779912E-004      50.78  <-- SCF
     20  -3.19048116E+003                   -8.00348686E-004      51.72  <-- SCF
     21  -3.19046299E+003                   -5.68050267E-004      52.64  <-- SCF
     22  -3.19045093E+003                   -3.76579886E-004      53.56  <-- SCF
     23  -3.19044879E+003                   -6.68976932E-005      54.55  <-- SCF
     24  -3.19045060E+003                    5.65856801E-005      55.54  <-- SCF
     25  -3.19045228E+003                    5.22113696E-005      56.41  <-- SCF
     26  -3.19045580E+003                    1.09984030E-004      57.21  <-- SCF
     27  -3.19046098E+003                    1.62013117E-004      58.01  <-- SCF
     28  -3.19046416E+003                    9.93353840E-005      58.80  <-- SCF
     29  -3.19046754E+003                    1.05796539E-004      59.60  <-- SCF
     30  -3.19047042E+003                    8.99176053E-005      60.39  <-- SCF
     31  -3.19047224E+003                    5.67125021E-005      61.22  <-- SCF
     32  -3.19047425E+003                    6.30036336E-005      62.01  <-- SCF
     33  -3.19047518E+003                    2.91274757E-005      62.80  <-- SCF
     34  -3.19047602E+003                    2.60890236E-005      63.60  <-- SCF
     35  -3.19047686E+003                    2.61321530E-005      64.39  <-- SCF
     36  -3.19047726E+003                    1.27933522E-005      65.18  <-- SCF
     37  -3.19047790E+003                    1.97960294E-005      65.97  <-- SCF
     38  -3.19047825E+003                    1.11233226E-005      66.76  <-- SCF
     39  -3.19047860E+003                    1.07162824E-005      67.56  <-- SCF
     40  -3.19047880E+003                    6.19970194E-006      68.35  <-- SCF
     41  -3.19047902E+003                    7.03527892E-006      69.14  <-- SCF
     42  -3.19047913E+003                    3.50915779E-006      69.94  <-- SCF
     43  -3.19047925E+003                    3.81492322E-006      70.73  <-- SCF
     44  -3.19047936E+003                    3.38912538E-006      71.52  <-- SCF
     45  -3.19047945E+003                    2.56227978E-006      72.31  <-- SCF
     46  -3.19047950E+003                    1.83384051E-006      73.10  <-- SCF
     47  -3.19047953E+003                    9.45232182E-007      73.89  <-- SCF
     48  -3.19047954E+003                    2.87276276E-007      74.68  <-- SCF
------------------------------------------------------------------------ <-- SCF
 
Final energy =  -3190.479543422     eV
(energy not corrected for finite basis set)
 
(SEDC) Total Energy Correction : -0.753575E+00 eV

Dispersion corrected final energy* =  -3191.233118657     eV

Writing analysis data to Conf_0008.castep_bin

Writing model to Conf_0008.check

WARNING - nonlinear constraints cannot be used with LBFGS algorithm
        - consider setting geom_method=DELOCALIZED
 
        => Turning nonlinear constraints OFF
 
+---------------- MEMORY AND SCRATCH DISK ESTIMATES PER PROCESS --------------+
|                                                     Memory          Disk    |
| Model and support data                              550.1 MB         0.0 MB |
| Electronic energy minimisation requirements          31.8 MB         0.0 MB |
| Geometry minimisation requirements                   34.8 MB         0.0 MB |
|                                               ----------------------------- |
| Approx. total storage required per process          616.7 MB         0.0 MB |
|                                                                             |
| Requirements will fluctuate during execution and may exceed these estimates |
+-----------------------------------------------------------------------------+
 
 
 ************************************** Forces **************************************
 *                                                                                  *
 *                           Cartesian components (eV/A)                            *
 * -------------------------------------------------------------------------------- *
 *                         x                    y                    z              *
 *                                                                                  *
 * H               1      0.00286              0.28015             -0.10411         *
 * H               2     -0.24124              0.06180             -0.16122         *
 * H               3      0.00268              0.02704             -0.07331         *
 * H               4      0.02239             -0.02902             -0.06604         *
 * H               5     -0.17706             -0.02993              0.16400         *
 * H               6      0.04224              0.17866              0.09755         *
 * H               7      0.05931             -0.04741              0.07704         *
 * H               8      0.08599             -0.07255              0.06510         *
 * H               9     -0.04353             -0.10484             -0.05794         *
 * H              10     -0.00124             -0.11957              0.13348         *
 * H              11      0.45504             -0.83716             -0.35371         *
 * H              12     -0.40592              0.41316             -0.83659         *
 * H              13     -0.22894             -0.81664             -0.54443         *
 * H              14     -0.67288             -0.05233              0.02754         *
 * H              15      0.00060              0.61791              0.18086         *
 * H              16      0.02726              0.13128             -0.04450         *
 * H              17     -0.08454             -0.01657             -0.06043         *
 * H              18     -0.04629              0.10032             -0.15067         *
 * H              19      0.05436              0.03740             -0.01311         *
 * H              20     -0.00505             -0.08522             -0.03574         *
 * C               1     -0.62164              0.46315              0.46016         *
 * C               2      0.02695             -0.01099              0.01102         *
 * C               3     -0.67535              0.56815             -0.07403         *
 * C               4     -0.09926              0.08377             -0.10137         *
 * C               5     -0.08958             -0.48136              0.12686         *
 * C               6      0.18553             -0.21328              0.05131         *
 * C               7     -0.07634              0.05946              0.15060         *
 * N               1      2.07095             -1.98012             -0.63766         *
 * O               1      0.99076             -0.33351              0.35932         *
 * O               2     -0.67537              1.16646              0.79051         *
 * O               3      0.27187              0.74911              0.80785         *
 * Si              1     -0.15459              0.29267             -0.18833         *
 *                                                                                  *
 ************************************************************************************
 EXP precond LBFGS => estimated nearest neighbor distance :  1.625       A
 EXP precond LBFGS => estimated cutoff distance :  3.251       A
 doing test perturbation to get energy scale for EXP preconditioner
 
                           -------------------------------
                                     Cell Contents
                           -------------------------------
 
            xxxxxxxxxxxxxxxxxxxxxxxxxxxxxxxxxxxxxxxxxxxxxxxxxxxxxxxxxxxxxxxxx
            x  Element         Atom        Fractional coordinates of atoms  x
            x                 Number           u          v          w      x
            x---------------------------------------------------------------x
            x  H                 1         0.523755   0.451187   0.549708   x
            x  H                 2         0.615401   0.512945   0.556744   x
            x  H                 3         0.416967   0.499032   0.590448   x
            x  H                 4         0.508559   0.559415   0.597574   x
            x  H                 5         0.607670   0.545810   0.507086   x
            x  H                 6         0.517316   0.482930   0.500652   x
            x  H                 7         0.483625   0.630141   0.488360   x
            x  H                 8         0.399503   0.566377   0.479841   x
            x  H                 9         0.604894   0.586517   0.451542   x
            x  H                10         0.490357   0.605125   0.434897   x
            x  H                11         0.607388   0.396978   0.446748   x
            x  H                12         0.538983   0.501069   0.384285   x
            x  H                13         0.391998   0.422400   0.420465   x
            x  H                14         0.408095   0.538759   0.536058   x
            x  H                15         0.492512   0.595656   0.542489   x
            x  H                16         0.538770   0.410762   0.603748   x
            x  H                17         0.629900   0.470979   0.610926   x
            x  H                18         0.550908   0.433377   0.657947   x
            x  H                19         0.432417   0.457332   0.644732   x
            x  H                20         0.524590   0.517597   0.652028   x
            x  C                 1         0.535949   0.501274   0.558101   x
            x  C                 2         0.497321   0.508786   0.589760   x
            x  C                 3         0.527927   0.535432   0.505214   x
            x  C                 4         0.479035   0.578372   0.481561   x
            x  C                 5         0.526813   0.571020   0.450466   x
            x  C                 6         0.549438   0.461812   0.611251   x
            x  C                 7         0.512244   0.467968   0.643171   x
            x  N                 1         0.481450   0.548649   0.536397   x
            x  O                 1         0.569260   0.480254   0.400781   x
            x  O                 2         0.406724   0.460045   0.432012   x
            x  O                 3         0.581087   0.435450   0.455637   x
            x  Si                1         0.520925   0.485480   0.433768   x
            xxxxxxxxxxxxxxxxxxxxxxxxxxxxxxxxxxxxxxxxxxxxxxxxxxxxxxxxxxxxxxxxx
 
 
------------------------------------------------------------------------ <-- SCF
SCF loop      Energy                           Energy gain       Timer   <-- SCF
                                               per atom          (sec)   <-- SCF
------------------------------------------------------------------------ <-- SCF
Initial  -3.19290022E+003                                         76.70  <-- SCF
      1  -3.19046105E+003                   -7.62239044E-002      77.50  <-- SCF
      2  -3.19048766E+003                    8.31388679E-004      78.65  <-- SCF
      3  -3.19045876E+003                   -9.02925916E-004      79.65  <-- SCF
      4  -3.19047855E+003                    6.18488477E-004      80.65  <-- SCF
      5  -3.19047869E+003                    4.20810146E-006      81.51  <-- SCF
      6  -3.19047899E+003                    9.42172610E-006      82.27  <-- SCF
      7  -3.19047906E+003                    2.06980972E-006      83.03  <-- SCF
      8  -3.19047912E+003                    2.13662662E-006      83.79  <-- SCF
      9  -3.19047916E+003                    1.20040057E-006      84.55  <-- SCF
     10  -3.19047921E+003                    1.37168832E-006      85.33  <-- SCF
     11  -3.19047924E+003                    1.00835574E-006      86.10  <-- SCF
     12  -3.19047926E+003                    7.53966114E-007      86.87  <-- SCF
------------------------------------------------------------------------ <-- SCF
 
Final energy =  -3190.479263024     eV
(energy not corrected for finite basis set)
 
(SEDC) Total Energy Correction : -0.753407E+00 eV

Dispersion corrected final energy* =  -3191.232670460     eV
 
 ************************************** Forces **************************************
 *                                                                                  *
 *                           Cartesian components (eV/A)                            *
 * -------------------------------------------------------------------------------- *
 *                         x                    y                    z              *
 *                                                                                  *
 * H               1     -0.01295              0.22874             -0.10914         *
 * H               2     -0.12045              0.09570             -0.16477         *
 * H               3     -0.07085              0.01819             -0.06584         *
 * H               4      0.02635              0.04860             -0.04595         *
 * H               5     -0.06214             -0.00868              0.15686         *
 * H               6      0.03057              0.11145              0.08120         *
 * H               7      0.05913              0.04517              0.08687         *
 * H               8      0.02937             -0.08219              0.07825         *
 * H               9      0.08192             -0.06808             -0.07110         *
 * H              10     -0.04608             -0.07697              0.11056         *
 * H              11      0.47056             -0.89241             -0.36071         *
 * H              12     -0.43994              0.43031             -0.88609         *
 * H              13     -0.26039             -0.85287             -0.56661         *
 * H              14     -0.70487             -0.06700              0.03192         *
 * H              15      0.01243              0.72443              0.21644         *
 * H              16      0.00337              0.09424             -0.06425         *
 * H              17      0.05782              0.00221             -0.07045         *
 * H              18     -0.02778              0.07521             -0.11926         *
 * H              19      0.01064              0.03314             -0.01538         *
 * H              20     -0.00599             -0.03818             -0.01948         *
 * C               1     -0.68983              0.45165              0.45737         *
 * C               2      0.00547             -0.02250             -0.00939         *
 * C               3     -0.73510              0.56266             -0.06240         *
 * C               4     -0.12320              0.06000             -0.12838         *
 * C               5     -0.15060             -0.50437              0.14810         *
 * C               6      0.12228             -0.24113              0.05171         *
 * C               7     -0.08146              0.05830              0.13574         *
 * N               1      2.20345             -2.04657             -0.65644         *
 * O               1      1.01965             -0.35379              0.41038         *
 * O               2     -0.75859              1.15444              0.79840         *
 * O               3      0.29508              0.72547              0.86412         *
 * Si              1     -0.13786              0.33483             -0.21228         *
 *                                                                                  *
 ************************************************************************************
 EXP precond LBFGS => estimated parameter mu :  1.834       eV/A**2
 LBFGS: finished iteration     0 with enthalpy= -3.19123312E+003 eV
  
 +-----------+-----------------+-----------------+------------+-----+ <-- LBFGS
 | Parameter |      value      |    tolerance    |    units   | OK? | <-- LBFGS
 +-----------+-----------------+-----------------+------------+-----+ <-- LBFGS
 |  dE/ion   |   0.000000E+000 |   2.000000E-005 |         eV | No  | <-- LBFGS
 |  |F|max   |   3.078071E+000 |   5.000000E-002 |       eV/A | No  | <-- LBFGS
 |  |dR|max  |   7.520060E-015 |   2.000000E-003 |          A | No  | <-- LBFGS
 +-----------+-----------------+-----------------+------------+-----+ <-- LBFGS
  

================================================================================
 Starting LBFGS iteration          1 ...
================================================================================
  
 +------------+-------------+-------------+-----------------+ <-- min LBFGS
 |    Step    |   lambda    |   F.delta'  |    enthalpy     | <-- min LBFGS
 +------------+-------------+-------------+-----------------+ <-- min LBFGS
 |  previous  |    0.000000 |    1.788896 |    -3191.233119 | <-- min LBFGS
 +------------+-------------+-------------+-----------------+ <-- min LBFGS
  

--------------------------------------------------------------------------------
 LBFGS: starting iteration         1 with trial guess (lambda=  1.000000)
--------------------------------------------------------------------------------
 
                           -------------------------------
                                     Cell Contents
                           -------------------------------
 
            xxxxxxxxxxxxxxxxxxxxxxxxxxxxxxxxxxxxxxxxxxxxxxxxxxxxxxxxxxxxxxxxx
            x  Element         Atom        Fractional coordinates of atoms  x
            x                 Number           u          v          w      x
            x---------------------------------------------------------------x
            x  H                 1         0.521209   0.451449   0.549052   x
            x  H                 2         0.611637   0.512390   0.555988   x
            x  H                 3         0.415229   0.498055   0.589534   x
            x  H                 4         0.507117   0.558331   0.596679   x
            x  H                 5         0.604367   0.544336   0.507286   x
            x  H                 6         0.515630   0.482434   0.500801   x
            x  H                 7         0.482160   0.627738   0.488641   x
            x  H                 8         0.397949   0.563880   0.480111   x
            x  H                 9         0.603035   0.583116   0.451854   x
            x  H                10         0.488359   0.601750   0.435594   x
            x  H                11         0.619458   0.394325   0.447744   x
            x  H                12         0.542728   0.506137   0.380698   x
            x  H                13         0.379999   0.423773   0.420220   x
            x  H                14         0.405994   0.534666   0.535428   x
            x  H                15         0.494264   0.594153   0.542120   x
            x  H                16         0.537466   0.410427   0.602810   x
            x  H                17         0.628169   0.470021   0.609959   x
            x  H                18         0.548824   0.433319   0.656763   x
            x  H                19         0.430773   0.456980   0.643831   x
            x  H                20         0.522720   0.516775   0.651086   x
            x  C                 1         0.531955   0.501164   0.557930   x
            x  C                 2         0.495647   0.507775   0.588990   x
            x  C                 3         0.523996   0.534918   0.505084   x
            x  C                 4         0.476781   0.576245   0.481646   x
            x  C                 5         0.524627   0.567209   0.451024   x
            x  C                 6         0.548458   0.460580   0.610425   x
            x  C                 7         0.510198   0.467562   0.642379   x
            x  N                 1         0.487632   0.541928   0.535309   x
            x  O                 1         0.579144   0.482593   0.399406   x
            x  O                 2         0.394168   0.467546   0.433667   x
            x  O                 3         0.590387   0.438181   0.458107   x
            x  Si                1         0.520685   0.488749   0.433784   x
            xxxxxxxxxxxxxxxxxxxxxxxxxxxxxxxxxxxxxxxxxxxxxxxxxxxxxxxxxxxxxxxxx
 
 
------------------------------------------------------------------------ <-- SCF
SCF loop      Energy                           Energy gain       Timer   <-- SCF
                                               per atom          (sec)   <-- SCF
------------------------------------------------------------------------ <-- SCF
Initial  -3.20868913E+003                                         88.22  <-- SCF
      1  -3.18621223E+003                   -7.02402911E-001      89.02  <-- SCF
      2  -3.18954856E+003                    1.04260056E-001      90.33  <-- SCF
      3  -3.18889659E+003                   -2.03739242E-002      91.47  <-- SCF
      4  -3.18896316E+003                    2.08022661E-003      92.61  <-- SCF
      5  -3.18901009E+003                    1.46652827E-003      93.64  <-- SCF
      6  -3.18901400E+003                    1.22302305E-004      94.78  <-- SCF
      7  -3.18901567E+003                    5.23478106E-005      95.65  <-- SCF
      8  -3.18901689E+003                    3.78614026E-005      96.47  <-- SCF
      9  -3.18901812E+003                    3.86495244E-005      97.31  <-- SCF
     10  -3.18901873E+003                    1.88595629E-005      98.07  <-- SCF
     11  -3.18901907E+003                    1.08390231E-005      98.84  <-- SCF
     12  -3.18901940E+003                    1.02284823E-005      99.61  <-- SCF
     13  -3.18901961E+003                    6.61225149E-006     100.37  <-- SCF
     14  -3.18901982E+003                    6.47829126E-006     101.14  <-- SCF
     15  -3.18902000E+003                    5.68249289E-006     101.92  <-- SCF
     16  -3.18902010E+003                    3.19164244E-006     102.69  <-- SCF
     17  -3.18902018E+003                    2.38754941E-006     103.46  <-- SCF
     18  -3.18902023E+003                    1.64302915E-006     104.24  <-- SCF
     19  -3.18902030E+003                    2.26770291E-006     105.01  <-- SCF
     20  -3.18902034E+003                    1.01804588E-006     105.82  <-- SCF
     21  -3.18902038E+003                    1.21140572E-006     106.62  <-- SCF
     22  -3.18902042E+003                    1.39147532E-006     107.41  <-- SCF
     23  -3.18902045E+003                    7.87332366E-007     108.19  <-- SCF
     24  -3.18902048E+003                    1.16066329E-006     108.98  <-- SCF
------------------------------------------------------------------------ <-- SCF
 
Final energy =  -3189.020483053     eV
(energy not corrected for finite basis set)
 
(SEDC) Total Energy Correction : -0.751936E+00 eV

Dispersion corrected final energy* =  -3189.772419307     eV
 
 ************************************** Forces **************************************
 *                                                                                  *
 *                           Cartesian components (eV/A)                            *
 * -------------------------------------------------------------------------------- *
 *                         x                    y                    z              *
 *                                                                                  *
 * H               1      0.16880             -0.22440              0.25380         *
 * H               2      0.08717             -0.18344              0.22404         *
 * H               3     -0.07789              0.03969              0.08343         *
 * H               4     -0.02056              0.13458              0.09932         *
 * H               5     -0.06780             -0.02537             -0.33012         *
 * H               6      0.11571             -0.16687             -0.42715         *
 * H               7     -0.02012              0.19950             -0.11049         *
 * H               8     -0.25740             -0.00879              0.00371         *
 * H               9     -0.11726             -0.06923             -0.02412         *
 * H              10      0.00432              0.04375              0.07098         *
 * H              11     -1.39565              3.13737              1.48920         *
 * H              12      1.58737             -1.67339              3.05094         *
 * H              13      0.69940              3.20880              2.20818         *
 * H              14      2.27124              0.25412              0.00126         *
 * H              15     -0.20285             -2.15070             -0.62656         *
 * H              16     -0.04050             -0.34211             -0.11977         *
 * H              17      0.27141              0.04652             -0.03464         *
 * H              18      0.16242             -0.22486              0.25923         *
 * H              19     -0.18696             -0.00612             -0.00655         *
 * H              20      0.05505              0.25730              0.04964         *
 * C               1      1.65798             -1.47633             -0.42019         *
 * C               2     -0.49594              0.25498              0.48434         *
 * C               3      1.60067             -1.27361             -0.29595         *
 * C               4     -0.47783              0.35299              0.12843         *
 * C               5      0.34180              1.98920              0.52165         *
 * C               6     -0.32994              0.35931              0.15790         *
 * C               7     -0.00072             -0.01434             -0.42733         *
 * N               1     -4.37893              4.06983              1.13030         *
 * O               1     -2.64238              1.78065             -0.89797         *
 * O               2      1.53908             -2.61835             -2.24262         *
 * O               3      0.17453             -1.85961             -3.01581         *
 * Si              1     -0.02423             -3.81108             -1.23708         *
 *                                                                                  *
 ************************************************************************************
  
 +------------+-------------+-------------+-----------------+ <-- min LBFGS
 |    Step    |   lambda    |   F.delta'  |    enthalpy     | <-- min LBFGS
 +------------+-------------+-------------+-----------------+ <-- min LBFGS
 |  previous  |    0.000000 |    1.788896 |    -3191.233119 | <-- min LBFGS
 | trial step |    1.000000 |   -4.601259 |    -3189.772419 | <-- min LBFGS
 +------------+-------------+-------------+-----------------+ <-- min LBFGS
  

--------------------------------------------------------------------------------
 LBFGS: improving iteration         1 with line minimization (lambda=  0.279946)
--------------------------------------------------------------------------------
 
                           -------------------------------
                                     Cell Contents
                           -------------------------------
 
            xxxxxxxxxxxxxxxxxxxxxxxxxxxxxxxxxxxxxxxxxxxxxxxxxxxxxxxxxxxxxxxxx
            x  Element         Atom        Fractional coordinates of atoms  x
            x                 Number           u          v          w      x
            x---------------------------------------------------------------x
            x  H                 1         0.522336   0.450722   0.549288   x
            x  H                 2         0.613883   0.512323   0.556300   x
            x  H                 3         0.415626   0.498273   0.589975   x
            x  H                 4         0.507418   0.558721   0.597110   x
            x  H                 5         0.606257   0.544983   0.506892   x
            x  H                 6         0.516124   0.482286   0.500442   x
            x  H                 7         0.482434   0.629221   0.488184   x
            x  H                 8         0.398204   0.565300   0.479661   x
            x  H                 9         0.603877   0.585226   0.451370   x
            x  H                10         0.489028   0.603879   0.434832   x
            x  H                11         0.610278   0.395666   0.446767   x
            x  H                12         0.539359   0.502005   0.383024   x
            x  H                13         0.387773   0.422226   0.420137   x
            x  H                14         0.406647   0.537186   0.535641   x
            x  H                15         0.492236   0.594914   0.542147   x
            x  H                16         0.537732   0.410104   0.603276   x
            x  H                17         0.628997   0.470192   0.610450   x
            x  H                18         0.549681   0.432810   0.657441   x
            x  H                19         0.431113   0.456701   0.644296   x
            x  H                20         0.523362   0.516907   0.651585   x
            x  C                 1         0.534152   0.500761   0.557821   x
            x  C                 2         0.496095   0.508031   0.589327   x
            x  C                 3         0.526130   0.534857   0.504927   x
            x  C                 4         0.477616   0.577421   0.481329   x
            x  C                 5         0.525502   0.569584   0.450363   x
            x  C                 6         0.548516   0.460939   0.610814   x
            x  C                 7         0.510942   0.467333   0.642764   x
            x  N                 1         0.482397   0.546358   0.535852   x
            x  O                 1         0.571430   0.480400   0.400138   x
            x  O                 2         0.402348   0.461616   0.432215   x
            x  O                 3         0.583126   0.435665   0.456069   x
            x  Si                1         0.520146   0.485893   0.433513   x
            xxxxxxxxxxxxxxxxxxxxxxxxxxxxxxxxxxxxxxxxxxxxxxxxxxxxxxxxxxxxxxxxx
 
 
------------------------------------------------------------------------ <-- SCF
SCF loop      Energy                           Energy gain       Timer   <-- SCF
                                               per atom          (sec)   <-- SCF
------------------------------------------------------------------------ <-- SCF
Initial  -3.20998360E+003                                        110.32  <-- SCF
      1  -3.18974535E+003                   -6.32445357E-001     111.14  <-- SCF
      2  -3.19091211E+003                    3.64614704E-002     112.35  <-- SCF
      3  -3.19051048E+003                   -1.25509168E-002     113.50  <-- SCF
      4  -3.19061235E+003                    3.18347626E-003     114.62  <-- SCF
      5  -3.19064737E+003                    1.09426407E-003     115.70  <-- SCF
      6  -3.19064880E+003                    4.47715729E-005     116.66  <-- SCF
      7  -3.19064937E+003                    1.77265871E-005     117.42  <-- SCF
      8  -3.19064965E+003                    8.71974174E-006     118.18  <-- SCF
      9  -3.19065003E+003                    1.19340332E-005     118.95  <-- SCF
     10  -3.19065030E+003                    8.45123994E-006     119.71  <-- SCF
     11  -3.19065070E+003                    1.25575884E-005     120.50  <-- SCF
     12  -3.19065100E+003                    9.39812854E-006     121.29  <-- SCF
     13  -3.19065134E+003                    1.05573756E-005     122.05  <-- SCF
     14  -3.19065160E+003                    8.19453855E-006     122.82  <-- SCF
     15  -3.19065178E+003                    5.33725889E-006     123.59  <-- SCF
     16  -3.19065191E+003                    4.21856220E-006     124.36  <-- SCF
     17  -3.19065198E+003                    2.27649591E-006     125.13  <-- SCF
     18  -3.19065206E+003                    2.32045525E-006     125.91  <-- SCF
     19  -3.19065210E+003                    1.31342134E-006     126.69  <-- SCF
     20  -3.19065213E+003                    9.10069818E-007     127.47  <-- SCF
     21  -3.19065216E+003                    1.03152247E-006     128.24  <-- SCF
------------------------------------------------------------------------ <-- SCF
 
Final energy =  -3190.652161452     eV
(energy not corrected for finite basis set)
 
(SEDC) Total Energy Correction : -0.752869E+00 eV

Dispersion corrected final energy* =  -3191.405030335     eV
 
 ************************************** Forces **************************************
 *                                                                                  *
 *                           Cartesian components (eV/A)                            *
 * -------------------------------------------------------------------------------- *
 *                         x                    y                    z              *
 *                                                                                  *
 * H               1      0.04139              0.15366             -0.01440         *
 * H               2     -0.17310             -0.00577             -0.06694         *
 * H               3     -0.02351              0.02610             -0.03178         *
 * H               4      0.00574              0.01064             -0.02142         *
 * H               5     -0.15289             -0.03377              0.03865         *
 * H               6      0.05491              0.08562             -0.03576         *
 * H               7      0.03183              0.01992              0.02580         *
 * H               8     -0.01354             -0.05592              0.04828         *
 * H               9     -0.06969             -0.09325             -0.04933         *
 * H              10     -0.00312             -0.08237              0.12116         *
 * H              11     -0.29171              0.67882              0.34376         *
 * H              12      0.34004             -0.42843              0.68968         *
 * H              13      0.20404              0.75085              0.53283         *
 * H              14      0.38688              0.10723              0.02982         *
 * H              15     -0.12306             -0.37374             -0.11227         *
 * H              16      0.00547             -0.00076             -0.05969         *
 * H              17      0.00592             -0.00351             -0.05141         *
 * H              18      0.00471              0.01006             -0.04405         *
 * H              19     -0.01665              0.02144             -0.00523         *
 * H              20      0.00698              0.00482             -0.00797         *
 * C               1     -0.07398              0.01970              0.14445         *
 * C               2     -0.11258              0.05246              0.12963         *
 * C               3     -0.11177              0.09330             -0.03973         *
 * C               4     -0.19770              0.14151             -0.03315         *
 * C               5      0.01561              0.09975              0.16723         *
 * C               6      0.03551             -0.05839              0.08142         *
 * C               7     -0.05620              0.03241             -0.00856         *
 * N               1      0.47696             -0.13006             -0.11017         *
 * O               1     -0.32196              0.46397             -0.25456         *
 * O               2     -0.04136             -0.30868             -0.35107         *
 * O               3      0.27873             -0.21492             -0.57873         *
 * Si              1     -0.11192             -0.98271             -0.47649         *
 *                                                                                  *
 ************************************************************************************
  
 +------------+-------------+-------------+-----------------+ <-- min LBFGS
 |    Step    |   lambda    |   F.delta'  |    enthalpy     | <-- min LBFGS
 +------------+-------------+-------------+-----------------+ <-- min LBFGS
 |  previous  |    0.000000 |    1.788896 |    -3191.233119 | <-- min LBFGS
 | trial step |    1.000000 |   -4.601259 |    -3189.772419 | <-- min LBFGS
 |  line step |    0.279946 |   -0.338902 |    -3191.405030 | <-- min LBFGS
 +------------+-------------+-------------+-----------------+ <-- min LBFGS
  
 LBFGS: finished iteration     1 with enthalpy= -3.19140503E+003 eV
  
 +-----------+-----------------+-----------------+------------+-----+ <-- LBFGS
 | Parameter |      value      |    tolerance    |    units   | OK? | <-- LBFGS
 +-----------+-----------------+-----------------+------------+-----+ <-- LBFGS
 |  dE/ion   |   5.372240E-003 |   2.000000E-005 |         eV | No  | <-- LBFGS
 |  |F|max   |   1.097856E+000 |   5.000000E-002 |       eV/A | No  | <-- LBFGS
 |  |dR|max  |   6.853115E-002 |   2.000000E-003 |          A | No  | <-- LBFGS
 +-----------+-----------------+-----------------+------------+-----+ <-- LBFGS
  

================================================================================
 Starting LBFGS iteration          2 ...
================================================================================
  
 +------------+-------------+-------------+-----------------+ <-- min LBFGS
 |    Step    |   lambda    |   F.delta'  |    enthalpy     | <-- min LBFGS
 +------------+-------------+-------------+-----------------+ <-- min LBFGS
 |  previous  |    0.000000 |    0.857527 |    -3191.405030 | <-- min LBFGS
 +------------+-------------+-------------+-----------------+ <-- min LBFGS
  

--------------------------------------------------------------------------------
 LBFGS: starting iteration         2 with trial guess (lambda=  1.000000)
--------------------------------------------------------------------------------
 
                           -------------------------------
                                     Cell Contents
                           -------------------------------
 
            xxxxxxxxxxxxxxxxxxxxxxxxxxxxxxxxxxxxxxxxxxxxxxxxxxxxxxxxxxxxxxxxx
            x  Element         Atom        Fractional coordinates of atoms  x
            x                 Number           u          v          w      x
            x---------------------------------------------------------------x
            x  H                 1         0.522195   0.451597   0.548938   x
            x  H                 2         0.611950   0.512255   0.555828   x
            x  H                 3         0.415103   0.498407   0.589504   x
            x  H                 4         0.507035   0.558673   0.596657   x
            x  H                 5         0.604426   0.544227   0.506952   x
            x  H                 6         0.516193   0.482467   0.500327   x
            x  H                 7         0.481807   0.627992   0.488490   x
            x  H                 8         0.397416   0.563876   0.480000   x
            x  H                 9         0.602190   0.582721   0.451771   x
            x  H                10         0.487873   0.601354   0.435755   x
            x  H                11         0.612784   0.399882   0.447075   x
            x  H                12         0.543604   0.501177   0.384749   x
            x  H                13         0.386713   0.428081   0.421907   x
            x  H                14         0.409724   0.535594   0.535278   x
            x  H                15         0.494174   0.592663   0.541675   x
            x  H                16         0.537299   0.410439   0.602659   x
            x  H                17         0.628265   0.470253   0.609832   x
            x  H                18         0.548662   0.433476   0.656657   x
            x  H                19         0.430239   0.457290   0.643697   x
            x  H                20         0.522471   0.517224   0.650965   x
            x  C                 1         0.533074   0.500955   0.557751   x
            x  C                 2         0.495351   0.508132   0.589041   x
            x  C                 3         0.524808   0.534715   0.504779   x
            x  C                 4         0.476062   0.576495   0.481510   x
            x  C                 5         0.524243   0.567415   0.451070   x
            x  C                 6         0.548208   0.460851   0.610376   x
            x  C                 7         0.509841   0.467865   0.642200   x
            x  N                 1         0.487604   0.543230   0.535200   x
            x  O                 1         0.574796   0.481210   0.401061   x
            x  O                 2         0.399606   0.465900   0.433339   x
            x  O                 3         0.587213   0.438499   0.455811   x
            x  Si                1         0.519841   0.483589   0.433095   x
            xxxxxxxxxxxxxxxxxxxxxxxxxxxxxxxxxxxxxxxxxxxxxxxxxxxxxxxxxxxxxxxxx
 
 
------------------------------------------------------------------------ <-- SCF
SCF loop      Energy                           Energy gain       Timer   <-- SCF
                                               per atom          (sec)   <-- SCF
------------------------------------------------------------------------ <-- SCF
Initial  -3.20995547E+003                                        129.60  <-- SCF
      1  -3.19018144E+003                   -6.17938279E-001     130.42  <-- SCF
      2  -3.19052897E+003                    1.08602801E-002     131.58  <-- SCF
      3  -3.19038214E+003                   -4.58861161E-003     132.58  <-- SCF
      4  -3.19046047E+003                    2.44795703E-003     133.61  <-- SCF
      5  -3.19046607E+003                    1.74886458E-004     134.76  <-- SCF
      6  -3.19046619E+003                    3.81213542E-006     135.68  <-- SCF
      7  -3.19046586E+003                   -1.02493007E-005     136.56  <-- SCF
      8  -3.19046543E+003                   -1.35527874E-005     137.44  <-- SCF
      9  -3.19046534E+003                   -2.82093830E-006     138.23  <-- SCF
     10  -3.19046553E+003                    6.01656314E-006     139.00  <-- SCF
     11  -3.19046588E+003                    1.08819779E-005     139.79  <-- SCF
     12  -3.19046615E+003                    8.43784732E-006     140.56  <-- SCF
     13  -3.19046653E+003                    1.17835114E-005     141.33  <-- SCF
     14  -3.19046679E+003                    8.14985242E-006     142.09  <-- SCF
     15  -3.19046703E+003                    7.76936658E-006     142.86  <-- SCF
     16  -3.19046731E+003                    8.52105143E-006     143.64  <-- SCF
     17  -3.19046758E+003                    8.38880616E-006     144.41  <-- SCF
     18  -3.19046780E+003                    6.89624785E-006     145.18  <-- SCF
     19  -3.19046793E+003                    4.09862037E-006     145.96  <-- SCF
     20  -3.19046800E+003                    2.18490817E-006     146.74  <-- SCF
     21  -3.19046806E+003                    2.08260901E-006     147.52  <-- SCF
     22  -3.19046810E+003                    1.18918398E-006     148.31  <-- SCF
     23  -3.19046811E+003                    3.95513894E-007     149.10  <-- SCF
------------------------------------------------------------------------ <-- SCF
 
Final energy =  -3190.468114961     eV
(energy not corrected for finite basis set)
 
(SEDC) Total Energy Correction : -0.758072E+00 eV

Dispersion corrected final energy* =  -3191.226187082     eV
 
[...]
 * H              18     -0.00283              0.00210             -0.00378         *
 * H              19      0.01094              0.00067             -0.00336         *
 * H              20     -0.00591             -0.00898             -0.00417         *
 * C               1      0.00583             -0.00985             -0.00319         *
 * C               2      0.00140              0.00666             -0.01243         *
 * C               3     -0.00440             -0.00127              0.02334         *
 * C               4     -0.00509              0.00112              0.01484         *
 * C               5      0.00610             -0.00261             -0.01455         *
 * C               6      0.00562             -0.00820              0.00549         *
 * C               7     -0.00313              0.00540              0.00263         *
 * N               1      0.01776             -0.00438             -0.00678         *
 * O               1      0.00371              0.00343             -0.00902         *
 * O               2     -0.00411              0.00103             -0.00349         *
 * O               3     -0.00206              0.01025             -0.00053         *
 * Si              1     -0.00360              0.00607              0.00236         *
 *                                                                                  *
 ************************************************************************************
 
 Pseudo atomic calculation performed for H 1s1
 
 Converged in 13 iterations to a total energy of -12.4790 eV
 
 Pseudo atomic calculation performed for C 2s2 2p2
 
 Converged in 17 iterations to a total energy of -148.5208 eV
 
 Pseudo atomic calculation performed for N 2s2 2p3
 
 Converged in 21 iterations to a total energy of -268.1820 eV
 
 Pseudo atomic calculation performed for O 2s2 2p4
 
 Converged in 23 iterations to a total energy of -432.6536 eV
 
 Pseudo atomic calculation performed for Si 3s2 3p2
 
 Converged in 11 iterations to a total energy of -165.0683 eV
Charge spilling parameter for spin component 1 = 1.55%
 
            Orbital Populations       
     Ion    Atom   Orbital             Charge
  -------------------------------------------
      H     1      S                    0.687
      H     2      S                    0.689
      H     3      S                    0.732
      H     4      S                    0.728
      H     5      S                    0.692
      H     6      S                    0.692
      H     7      S                    0.728
      H     8      S                    0.721
      H     9      S                    0.720
      H    10      S                    0.697
      H    11      S                    0.462
      H    12      S                    0.455
      H    13      S                    0.465
      H    14      S                    0.510
      H    15      S                    0.509
      H    16      S                    0.729
      H    17      S                    0.729
      H    18      S                    0.700
      H    19      S                    0.730
      H    20      S                    0.726
      C     1      S                    1.299
      C     1      Px                   1.140
      C     1      Py                   1.045
      C     1      Pz                   0.918
      C     2      S                    1.298
      C     2      Px                   1.144
      C     2      Py                   1.145
      C     2      Pz                   0.937
      C     3      S                    1.295
      C     3      Px                   1.137
      C     3      Py                   1.207
      C     3      Pz                   0.756
      C     4      S                    1.300
      C     4      Px                   1.124
      C     4      Py                   1.137
      C     4      Pz                   0.969
      C     5      S                    1.409
      C     5      Px                   1.197
      C     5      Py                   1.311
      C     5      Pz                   1.050
      C     6      S                    1.304
      C     6      Px                   1.135
      C     6      Py                   1.093
      C     6      Pz                   0.977
      C     7      S                    1.399
      C     7      Px                   1.177
      C     7      Py                   1.212
      C     7      Pz                   1.004
      N     1      S                    1.587
      N     1      Px                   1.394
      N     1      Py                   1.381
      N     1      Pz                   1.276
      O     1      S                    1.855
      O     1      Px                   1.840
      O     1      Py                   1.861
      O     1      Pz                   1.538
      O     2      S                    1.857
      O     2      Px                   1.712
      O     2      Py                   1.677
      O     2      Pz                   1.853
      O     3      S                    1.856
      O     3      Px                   1.796
      O     3      Py                   1.623
      O     3      Pz                   1.838
     Si     1      S                    0.726
     Si     1      Px                   0.307
     Si     1      Py                   0.460
     Si     1      Pz                   0.346
  -------------------------------------------
                           Total:      74.000
  -------------------------------------------
 
     Atomic Populations (Mulliken)
     -----------------------------
Species          Ion     s       p       d       f      Total   Charge (e)
==========================================================================
  H               1     0.687   0.000   0.000   0.000   0.687     0.313
  H               2     0.689   0.000   0.000   0.000   0.689     0.311
  H               3     0.732   0.000   0.000   0.000   0.732     0.268
  H               4     0.728   0.000   0.000   0.000   0.728     0.272
  H               5     0.692   0.000   0.000   0.000   0.692     0.308
  H               6     0.692   0.000   0.000   0.000   0.692     0.308
  H               7     0.728   0.000   0.000   0.000   0.728     0.272
  H               8     0.721   0.000   0.000   0.000   0.721     0.279
  H               9     0.720   0.000   0.000   0.000   0.720     0.280
  H              10     0.697   0.000   0.000   0.000   0.697     0.303
  H              11     0.462   0.000   0.000   0.000   0.462     0.538
  H              12     0.455   0.000   0.000   0.000   0.455     0.545
  H              13     0.465   0.000   0.000   0.000   0.465     0.535
  H              14     0.510   0.000   0.000   0.000   0.510     0.490
  H              15     0.509   0.000   0.000   0.000   0.509     0.491
  H              16     0.729   0.000   0.000   0.000   0.729     0.271
  H              17     0.729   0.000   0.000   0.000   0.729     0.271
  H              18     0.700   0.000   0.000   0.000   0.700     0.300
  H              19     0.730   0.000   0.000   0.000   0.730     0.270
  H              20     0.726   0.000   0.000   0.000   0.726     0.274
  C               1     1.299   3.102   0.000   0.000   4.401    -0.401
  C               2     1.298   3.226   0.000   0.000   4.524    -0.524
  C               3     1.295   3.099   0.000   0.000   4.394    -0.394
  C               4     1.300   3.231   0.000   0.000   4.531    -0.531
  C               5     1.409   3.558   0.000   0.000   4.966    -0.966
  C               6     1.304   3.205   0.000   0.000   4.509    -0.509
  C               7     1.399   3.393   0.000   0.000   4.793    -0.793
  N               1     1.587   4.051   0.000   0.000   5.637    -0.637
  O               1     1.855   5.238   0.000   0.000   7.093    -1.093
  O               2     1.857   5.242   0.000   0.000   7.099    -1.099
  O               3     1.856   5.257   0.000   0.000   7.113    -1.113
  Si              1     0.726   1.113   0.000   0.000   1.839     2.161
==========================================================================
 
                 Bond                   Population      Length (A)
======================================================================
              H 12 -- O 1                    0.53        0.96919
              H 13 -- O 2                    0.53        0.96938
              H 11 -- O 3                    0.53        0.97001
              H 14 -- N 1                    0.67        1.02908
              H 15 -- N 1                    0.67        1.02968
              H 6  -- C 3                    0.87        1.09724
              H 1  -- C 1                    0.86        1.09829
              H 5  -- C 3                    0.85        1.09836
              H 18 -- C 7                    0.81        1.09852
              H 2  -- C 1                    0.85        1.09871
              H 10 -- C 5                    0.82        1.10013
              H 20 -- C 7                    0.81        1.10038
              H 19 -- C 7                    0.81        1.10062
              H 9  -- C 5                    0.82        1.10137
              H 8  -- C 4                    0.85        1.10170
              H 17 -- C 6                    0.84        1.10180
              H 16 -- C 6                    0.84        1.10189
              H 4  -- C 2                    0.84        1.10201
              H 7  -- C 4                    0.84        1.10293
              H 3  -- C 2                    0.84        1.10348
               C 1 -- N 1                    0.51        1.51133
               C 3 -- N 1                    0.51        1.51221
               C 1 -- C 2                    0.71        1.51431
               C 3 -- C 4                    0.70        1.51729
               C 6 -- C 7                    0.65        1.52655
               C 2 -- C 6                    0.68        1.53251
               C 4 -- C 5                    0.64        1.53889
               O 1 -- Si 1                   0.52        1.63917
              H 14 -- H 15                  -0.12        1.64533
               O 2 -- Si 1                   0.49        1.64912
               O 3 -- Si 1                   0.48        1.65820
              H 9  -- H 10                  -0.09        1.75748
              H 16 -- H 17                  -0.12        1.76507
              H 5  -- H 6                   -0.11        1.77278
              H 1  -- H 2                   -0.11        1.77573
              H 7  -- H 8                   -0.13        1.77746
              H 3  -- H 4                   -0.12        1.77854
              H 18 -- H 20                  -0.10        1.77896
              H 19 -- H 20                  -0.10        1.77951
              H 18 -- H 19                  -0.10        1.78122
               C 5 -- Si 1                   0.60        1.87883
              H 14 -- C 1                   -0.12        2.09153
              H 14 -- C 3                   -0.12        2.09221
              H 1  -- N 1                   -0.11        2.09281
              H 2  -- N 1                   -0.11        2.09801
              H 15 -- C 3                   -0.12        2.09971
              H 5  -- N 1                   -0.11        2.09998
              H 15 -- C 1                   -0.12        2.10035
              H 6  -- N 1                   -0.11        2.10290
              H 8  -- C 3                   -0.13        2.15032
              H 7  -- C 3                   -0.14        2.15362
              H 10 -- C 4                   -0.12        2.15524
              H 17 -- C 2                   -0.14        2.15620
              H 16 -- C 2                   -0.14        2.15738
              H 4  -- C 1                   -0.14        2.15775
              H 3  -- C 1                   -0.14        2.16020
              H 4  -- C 6                   -0.12        2.16422
              H 3  -- C 6                   -0.12        2.16719
              H 17 -- C 7                   -0.13        2.16790
              H 16 -- C 7                   -0.13        2.17207
              H 8  -- C 5                   -0.13        2.17270
              H 18 -- C 6                   -0.12        2.17560
              H 20 -- C 6                   -0.12        2.17624
              H 19 -- C 6                   -0.12        2.17735
              H 9  -- C 4                   -0.12        2.17739
              H 1  -- C 2                   -0.12        2.17760
              H 7  -- C 5                   -0.13        2.17883
              H 2  -- C 2                   -0.12        2.17976
              H 6  -- C 4                   -0.11        2.18029
              H 5  -- C 4                   -0.12        2.18475
              H 11 -- Si 1                  -0.13        2.26993
              H 13 -- Si 1                  -0.14        2.28266
              H 12 -- Si 1                  -0.13        2.28569
              H 6  -- O 3                    0.00        2.30220
              H 1  -- H 6                   -0.02        2.31066
              H 5  -- H 15                  -0.04        2.38610
              H 1  -- H 14                  -0.03        2.40433
              H 2  -- H 5                   -0.02        2.42329
              H 2  -- H 15                  -0.03        2.42629
              H 10 -- Si 1                  -0.12        2.44228
              H 7  -- H 10                  -0.04        2.45266
              H 6  -- H 14                  -0.03        2.45718
              H 9  -- Si 1                  -0.13        2.46515
              H 6  -- H 8                   -0.04        2.49607
               C 1 -- C 6                   -0.15        2.49643
              H 4  -- H 17                  -0.03        2.50274
              H 8  -- H 14                  -0.00        2.50281
               C 1 -- C 3                   -0.15        2.50457
              H 16 -- H 18                  -0.03        2.50721
              H 8  -- H 10                  -0.02        2.51026
              H 3  -- H 16                  -0.03        2.51077
               C 4 -- N 1                   -0.13        2.51345
              H 17 -- H 18                  -0.03        2.51510
               C 3 -- C 5                   -0.15        2.51520
              H 1  -- H 16                  -0.01        2.51791
              H 17 -- H 20                  -0.03        2.51939
              H 2  -- H 17                  -0.01        2.52273
               C 2 -- N 1                   -0.13        2.52402
              H 2  -- H 4                   -0.03        2.52427
              H 7  -- H 9                   -0.03        2.52514
              H 1  -- H 3                   -0.03        2.52640
               C 2 -- C 7                   -0.15        2.53741
              H 16 -- H 19                  -0.03        2.54045
              H 7  -- H 15                  -0.00        2.54675
              H 5  -- H 7                   -0.03        2.54721
              H 3  -- H 14                  -0.00        2.55103
              H 4  -- H 15                  -0.00        2.56403
              H 5  -- H 9                   -0.01        2.56491
              H 3  -- H 19                  -0.01        2.57125
              H 4  -- H 20                  -0.01        2.58562
               O 1 -- O 3                   -0.08        2.62480
              H 6  -- C 1                   -0.05        2.62503
              H 1  -- C 3                   -0.04        2.66110
              H 2  -- C 3                   -0.04        2.66915
              H 14 -- C 4                   -0.04        2.66984
              H 11 -- O 1                   -0.01        2.69823
              H 16 -- C 1                   -0.04        2.70538
              H 17 -- C 1                   -0.04        2.70672
              H 7  -- N 1                   -0.03        2.72337
              H 5  -- C 1                   -0.03        2.72349
              H 14 -- C 2                   -0.03        2.72883
              H 15 -- C 2                   -0.03        2.73534
               O 2 -- O 3                   -0.07        2.74788
               O 1 -- O 2                   -0.07        2.75780
              H 9  -- C 3                   -0.04        2.76277
              H 15 -- C 4                   -0.02        2.76421
              H 4  -- C 7                   -0.04        2.76975
              H 1  -- C 6                   -0.03        2.76994
              H 3  -- C 7                   -0.04        2.77187
              H 5  -- C 5                   -0.04        2.77232
              H 2  -- C 6                   -0.03        2.77314
              H 8  -- N 1                   -0.02        2.77436
              H 3  -- N 1                   -0.02        2.77532
               C 5 -- O 2                   -0.11        2.77691
              H 4  -- N 1                   -0.02        2.78030
              H 19 -- C 2                   -0.04        2.79183
              H 20 -- C 2                   -0.04        2.80623
              H 6  -- C 5                   -0.02        2.81598
               C 5 -- O 3                   -0.10        2.85129
              H 8  -- O 2                    0.00        2.85816
              H 2  -- H 6                   -0.00        2.87782
               C 4 -- Si 1                  -0.12        2.90401
              H 7  -- H 14                  -0.00        2.93098
               C 5 -- O 1                   -0.08        2.95394
              H 2  -- H 14                   0.03        2.95780
              H 5  -- H 14                   0.03        2.95803
              H 6  -- Si 1                  -0.03        2.95961
              H 1  -- H 15                   0.03        2.96005
              H 6  -- H 15                   0.03        2.96411
              H 10 -- O 2                   -0.01        2.98535
              H 12 -- O 2                   -0.01        2.99414
======================================================================
 
 
     Hirshfeld Analysis
     ------------------
Species   Ion     Hirshfeld Charge (e)
======================================
  H        1                 0.07
  H        2                 0.07
  H        3                 0.05
  H        4                 0.05
  H        5                 0.07
  H        6                 0.05
  H        7                 0.05
  H        8                 0.05
  H        9                 0.05
  H       10                 0.06
  H       11                 0.17
  H       12                 0.18
  H       13                 0.17
  H       14                 0.18
  H       15                 0.18
  H       16                 0.04
  H       17                 0.04
  H       18                 0.06
  H       19                 0.05
  H       20                 0.05
  C        1                 0.01
  C        2                -0.06
  C        3                 0.01
  C        4                -0.06
  C        5                -0.14
  C        6                -0.05
  C        7                -0.10
  N        1                 0.03
  O        1                -0.28
  O        2                -0.28
  O        3                -0.28
  Si       1                 0.47
======================================
 

Writing analysis data to Conf_0008.castep_bin

Writing model to Conf_0008.check
 
 A BibTeX formatted list of references used in this run has been written to 
 Conf_0008.bib
 
Initialisation time =     24.88 s
Calculation time    =    533.12 s
Finalisation time   =      1.24 s
Total time          =    559.23 s
Peak Memory Use     = 7913044 kB
 
Overall parallel efficiency rating: Satisfactory (65%)
 
Data was distributed by:-
G-vector (48-way); efficiency rating: Satisfactory (65%)
 
Parallel notes:
1) Calculation only took 558.6 s, so efficiency estimates may be inaccurate.
High Water Mark     = 1879084 kB
