 Job started on host drago31060177.mgmt.cc.csic.es
 at Sun Mar 31 01:14:15 2024

 +-------------------------------------------------+
 |                                                 |
 |      CCC   AA    SSS  TTTTT  EEEEE  PPPP        |
 |     C     A  A  S       T    E      P   P       |
 |     C     AAAA   SS     T    EEE    PPPP        |
 |     C     A  A     S    T    E      P           |
 |      CCC  A  A  SSS     T    EEEEE  P           |
 |                                                 |
 +-------------------------------------------------+
 |                                                 |
 | Materials Studio CASTEP version 2024            |
 | Ab Initio Total Energy Program                  |
 |                                                 |
 | Authors:                                        |
 | M. Segall, M. Probert, C. Pickard, P. Hasnip,   |
 | S. Clark, K. Refson, J. R. Yates,               |
 | A. Bartok-Partay, M. Payne                      |
 |                                                 |
 | Contributors:                                   |
 | P. Lindan, P. Haynes, J. White, V. Milman,      |
 | N. Govind, M. Gibson, P. Tulip, V. Cocula,      |
 | B. Montanari, D. Quigley, M. Glover,            |
 | L. Bernasconi, A. Perlov, M. Plummer,           |
 | E. McNellis, J. Meyer, J. Gale, D. Jochym       |
 | J. Aarons, B. Walker, R. Gillen, D. Jones       |
 | T. Green, I. J. Bush, C. J. Armstrong,          |
 | E. J. Higgins, E. L. Brown, M. S. McFly,        |
 | J. Wilkins, B-C. Shih, P. J. P. Byrne,          |
 | R. J. Maurer, J. C. Womack, J. Dziedzic,        |
 | L. LeBlanc, T. K. Stenczel, J. Kermode,         |
 | S. Sturniolo, B. Shi, B. Durham, M. Evans,      |
 | M. J. Smith, A. Tamerus, Z. Hawkhead,           |
 | V. Ravindran, T. Hollins, S. A. Joyce,          |
 | R. T. Strong, A. M. Reilly                      |
 |                                                 |
 | Copyright (c) 2000 - 2023                       |
 |                                                 |
 | Please cite                                     |
 |                                                 |
 |     "First principles methods using CASTEP"     |
 |                                                 |
 |         Zeitschrift fuer Kristallographie       |
 |           220(5-6) pp. 567-570 (2005)           |
 |                                                 |
 | S. J. Clark, M. D. Segall, C. J. Pickard,       |
 | P. J. Hasnip, M. J. Probert, K. Refson,         |
 | M. C. Payne                                     |
 |                                                 |
 |       in all publications arising from          |
 |              your use of CASTEP                 |
 |                                                 |
 +-------------------------------------------------+
 |                                                 |
 |              http://www.castep.org              |
 |                                                 |
 +-------------------------------------------------+
 
 
 This version was compiled for x86_64-rhel7-intel19.0 on Oct 24 2023
 Code version:    a9f326b
 Intel(R) Math Kernel Library Version 2019.0.4 
 Fundamental constants values: CODATA 2018
 
License checkout of MS_castep successful
 
 
 Atomic calculation performed for H: 1s1
 
 Converged in 41 iterations to an ae energy of -12.488 eV
 
 Identity difference: 2.63E-05
 
   ============================================================                
   | Pseudopotential Report - Date of generation 31-03-2024   |                
   ------------------------------------------------------------                
   | Element: H Ionic charge:  1.00 Level of theory: PBE      |                
   | Atomic Solver: Koelling-Harmon                           |                
   |                                                          |                
   |               Reference Electronic Structure             |                
   |         Orbital         Occupation         Energy        |                
   |            1s              1.000           -0.239        |                
   |                                                          |                
   |                 Pseudopotential Definition               |                
   |        Beta     l      e      Rc     scheme   norm       |                
   |          1      0   -0.239   0.599     qc      0         |                
   |          2      0    0.250   0.599     qc      0         |                
   |         loc     1    0.000   0.599     pn      0         |                
   |                                                          |                
   | Augmentation charge Rinner = 0.421                       |                
   | No partial core correction                               |                
   ------------------------------------------------------------                
   | "1|0.6|9|10|15|10UU(qc=8)[]"                             |                
   ------------------------------------------------------------                
   |      Author: Chris J. Pickard, Cambridge University      |                
   ============================================================                
 
 Doing a self consistent calculation for the test configuration
 
 Atomic calculation performed for H: 1s1
 
 Converged in 41 iterations to an ae energy of -12.488 eV
 
 ---------------------------------------
 AE eigenvalue nl 10 =       -0.23860176
 ---------------------------------------
 PS eigenvalue nl 10 =       -0.23857601
 ---------------------------------------
 Maximum eigenvalue error:   2.57E-05
 
 Derived cutoff energies: C=   1 M=   6 F=  10 E=  20
 
 Checking for ghost states up to   1.51185 Ha
 
 No Ghost States Identified
 
 ***************************************
 
 Atomic calculation performed for C: 1s2 2s2 2p2
 
 Converged in 54 iterations to an ae energy of -1027.632 eV
 
 Identity difference: 2.37E-04
 
   ============================================================                
   | Pseudopotential Report - Date of generation 31-03-2024   |                
   ------------------------------------------------------------                
   | Element: C Ionic charge:  4.00 Level of theory: PBE      |                
   | Atomic Solver: Koelling-Harmon                           |                
   |                                                          |                
   |               Reference Electronic Structure             |                
   |         Orbital         Occupation         Energy        |                
   |            2s              2.000           -0.505        |                
   |            2p              2.000           -0.194        |                
   |                                                          |                
   |                 Pseudopotential Definition               |                
   |        Beta     l      e      Rc     scheme   norm       |                
   |          1      0   -0.505   1.395     qc      0         |                
   |          2      0    0.250   1.395     qc      0         |                
   |          3      1   -0.194   1.395     qc      0         |                
   |          4      1    0.250   1.395     qc      0         |                
   |         loc     2    0.000   1.395     pn      0         |                
   |                                                          |                
   | Augmentation charge Rinner = 0.983                       |                
   | Partial core correction Rc = 0.983                       |                
   ------------------------------------------------------------                
   | "2|1.4|11|12|14.7|20UU:21UU(qc=7)[]"                     |                
   ------------------------------------------------------------                
   |      Author: Chris J. Pickard, Cambridge University      |                
   ============================================================                
 
 Doing a self consistent calculation for the test configuration
 
 Atomic calculation performed for C: 1s2 2s2 2p2
 
 Converged in 54 iterations to an ae energy of -1027.632 eV
 
 ---------------------------------------
 AE eigenvalue nl 10 =      -10.04653081
 AE eigenvalue nl 20 =       -0.50533429
 AE eigenvalue nl 21 =       -0.19423807
 ---------------------------------------
 PS eigenvalue nl 20 =       -0.50531853
 PS eigenvalue nl 21 =       -0.19422214
 ---------------------------------------
 Maximum eigenvalue error:   1.59E-05
 
 Derived cutoff energies: C=   6 M=  10 F=  12 E=  16
 
 Checking for ghost states up to   1.47183 Ha
 
 No Ghost States Identified
 
 ***************************************
 
 Atomic calculation performed for N: 1s2 2s2 2p3
 
 Converged in 55 iterations to an ae energy of -1481.742 eV
 
 Identity difference: 2.27E-04
 
   ============================================================                
   | Pseudopotential Report - Date of generation 31-03-2024   |                
   ------------------------------------------------------------                
   | Element: N Ionic charge:  5.00 Level of theory: PBE      |                
   | Atomic Solver: Koelling-Harmon                           |                
   |                                                          |                
   |               Reference Electronic Structure             |                
   |         Orbital         Occupation         Energy        |                
   |            2s              2.000           -0.683        |                
   |            2p              3.000           -0.261        |                
   |                                                          |                
   |                 Pseudopotential Definition               |                
   |        Beta     l      e      Rc     scheme   norm       |                
   |          1      0   -0.683   1.100     qc      0         |                
   |          2      0    0.250   1.100     qc      0         |                
   |          3      1   -0.261   1.100     qc      0         |                
   |          4      1    0.250   1.100     qc      0         |                
   |         loc     2    0.000   1.100     pn      0         |                
   |                                                          |                
   | Augmentation charge Rinner = 0.769                       |                
   | Partial core correction Rc = 0.769                       |                
   ------------------------------------------------------------                
   | "2|1.1|12|16|19|20UU:21UU(qc=7)[]"                       |                
   ------------------------------------------------------------                
   |      Author: Chris J. Pickard, Cambridge University      |                
   ============================================================                
 
 Doing a self consistent calculation for the test configuration
 
 Atomic calculation performed for N: 1s2 2s2 2p3
 
 Converged in 55 iterations to an ae energy of -1481.742 eV
 
 ---------------------------------------
 AE eigenvalue nl 10 =      -14.13820921
 AE eigenvalue nl 20 =       -0.68290611
 AE eigenvalue nl 21 =       -0.26054797
 ---------------------------------------
 PS eigenvalue nl 20 =       -0.68291221
 PS eigenvalue nl 21 =       -0.26051708
 ---------------------------------------
 Maximum eigenvalue error:   3.09E-05
 
 Derived cutoff energies: C=  10 M=  15 F=  18 E=  23
 
 Checking for ghost states up to   1.48495 Ha
 
 No Ghost States Identified
 
 ***************************************
 
 Atomic calculation performed for O: 1s2 2s2 2p4
 
 Converged in 61 iterations to an ae energy of -2040.902 eV
 
 Identity difference: 4.10E-04
 
   ============================================================                
   | Pseudopotential Report - Date of generation 31-03-2024   |                
   ------------------------------------------------------------                
   | Element: O Ionic charge:  6.00 Level of theory: PBE      |                
   | Atomic Solver: Koelling-Harmon                           |                
   |                                                          |                
   |               Reference Electronic Structure             |                
   |         Orbital         Occupation         Energy        |                
   |            2s              2.000           -0.881        |                
   |            2p              4.000           -0.332        |                
   |                                                          |                
   |                 Pseudopotential Definition               |                
   |        Beta     l      e      Rc     scheme   norm       |                
   |          1      0   -0.881   1.100     qc      0         |                
   |          2      0    0.250   1.100     qc      0         |                
   |          3      1   -0.332   1.100     qc      0         |                
   |          4      1    0.250   1.100     qc      0         |                
   |         loc     2    0.000   1.100     pn      0         |                
   |                                                          |                
   | Augmentation charge Rinner = 0.769                       |                
   | Partial core correction Rc = 0.769                       |                
   ------------------------------------------------------------                
   | "2|1.1|14|18|21|20UU:21UU(qc=7)[]"                       |                
   ------------------------------------------------------------                
   |      Author: Chris J. Pickard, Cambridge University      |                
   ============================================================                
 
 Doing a self consistent calculation for the test configuration
 
 Atomic calculation performed for O: 1s2 2s2 2p4
 
 Converged in 61 iterations to an ae energy of -2040.902 eV
 
 ---------------------------------------
 AE eigenvalue nl 10 =      -18.91475256
 AE eigenvalue nl 20 =       -0.88057101
 AE eigenvalue nl 21 =       -0.33186952
 ---------------------------------------
 PS eigenvalue nl 20 =       -0.88059206
 PS eigenvalue nl 21 =       -0.33182157
 ---------------------------------------
 Maximum eigenvalue error:   4.80E-05
 
 Derived cutoff energies: C=  14 M=  17 F=  20 E=  22
 
 Checking for ghost states up to   1.49452 Ha
 
 No Ghost States Identified
 
 ***************************************
 
 Atomic calculation performed for Si: 1s2 2s2 2p6 3s2 3p2
 
 Converged in 54 iterations to an ae energy of -7886.857 eV
 
 Identity difference: 1.35E-04
 
   ============================================================                
   | Pseudopotential Report - Date of generation 31-03-2024   |                
   ------------------------------------------------------------                
   | Element: Si Ionic charge:  4.00 Level of theory: PBE     |                
   | Atomic Solver: Koelling-Harmon                           |                
   |                                                          |                
   |               Reference Electronic Structure             |                
   |         Orbital         Occupation         Energy        |                
   |            3s              2.000           -0.397        |                
   |            3p              2.000           -0.150        |                
   |                                                          |                
   |                 Pseudopotential Definition               |                
   |        Beta     l      e      Rc     scheme   norm       |                
   |          1      0   -0.397   1.797     qc      0         |                
   |          2      0    0.250   1.797     qc      0         |                
   |          3      1   -0.150   1.797     qc      0         |                
   |          4      1    0.250   1.797     qc      0         |                
   |          5      2    0.000   1.797     qc      0         |                
   |          6      2    0.250   1.797     qc      0         |                
   |         loc     3    0.000   1.797     pn      0         |                
   |                                                          |                
   | Augmentation charge Rinner = 1.255                       |                
   | Partial core correction Rc = 1.255                       |                
   ------------------------------------------------------------                
   | "3|1.8|3.6|5|7|30UU:31UU:32UU[]"                         |                
   ------------------------------------------------------------                
   |      Author: Chris J. Pickard, Cambridge University      |                
   ============================================================                
 
 Doing a self consistent calculation for the test configuration
 
 Atomic calculation performed for Si: 1s2 2s2 2p6 3s2 3p2
 
 Converged in 54 iterations to an ae energy of -7886.857 eV
 
 ---------------------------------------
 AE eigenvalue nl 10 =      -65.63192903
 AE eigenvalue nl 20 =       -5.12654326
 AE eigenvalue nl 21 =       -3.51173659
 AE eigenvalue nl 30 =       -0.39736430
 AE eigenvalue nl 31 =       -0.14998156
 ---------------------------------------
 PS eigenvalue nl 30 =       -0.39734922
 PS eigenvalue nl 31 =       -0.14996719
 ---------------------------------------
 Maximum eigenvalue error:   1.51E-05
 
 Derived cutoff energies: C=   1 M=   3 F=   6 E=   6
 
 Checking for ghost states up to   1.41161 Ha
 
 No Ghost States Identified
 
 ***************************************
 
 Pseudo atomic calculation performed for H 1s1
 
 Converged in 13 iterations to a total energy of -12.4790 eV
 
 Pseudo atomic calculation performed for C 2s2 2p2
 
 Converged in 17 iterations to a total energy of -148.5208 eV
 
 Pseudo atomic calculation performed for N 2s2 2p3
 
 Converged in 21 iterations to a total energy of -268.1820 eV
 
 Pseudo atomic calculation performed for O 2s2 2p4
 
 Converged in 23 iterations to a total energy of -432.6536 eV
 
 Pseudo atomic calculation performed for Si 3s2 3p2
 
 Converged in 11 iterations to a total energy of -165.0683 eV
 Calculation parallelised over 48 processes.
 Data is distributed by G-vector(48-way)

 ************************************ Title ************************************
 CASTEP calculation from BIOVIA Materials Studio 2024

 ***************************** General Parameters ******************************
  
 output verbosity                               : normal  (1)
 write checkpoint data to                       : Conf_0018.check
 type of calculation                            : geometry optimization
 stress calculation                             : off
 density difference calculation                 : off
 electron localisation func (ELF) calculation   : off
 Hirshfeld analysis                             : on
 polarisation (Berry phase) analysis            : off
 molecular orbital projected DOS                : off
 deltaSCF calculation                           : off
 unlimited duration calculation
 timing information                             : on
 memory usage estimate                          : on
 write extra output files                       : on
 write final potential to formatted file        : off
 write final density to formatted file          : off
 write BibTeX reference list                    : on
 write OTFG pseudopotential files               : on
 write electrostatic potential file             : on
 write bands file                               : on
 checkpoint writing                             : both castep_bin and check files
  
 output         length unit                     : A
 output           mass unit                     : amu
 output           time unit                     : ps
 output         charge unit                     : e
 output           spin unit                     : hbar/2
 output         energy unit                     : eV
 output          force unit                     : eV/A
 output       velocity unit                     : A/ps
 output       pressure unit                     : GPa
 output     inv_length unit                     : 1/A
 output      frequency unit                     : cm-1
 output force constant unit                     : eV/A**2
 output         volume unit                     : A**3
 output   IR intensity unit                     : (D/A)**2/amu
 output         dipole unit                     : D
 output         efield unit                     : eV/A/e
 output        entropy unit                     : J/mol/K
 output    efield chi2 unit                     : pm/V
  
 wavefunctions paging                           : none
 random number generator seed                   :   11417787
 data distribution                              : optimal for this architecture
 optimization strategy                          : balance speed and memory

 *********************** Exchange-Correlation Parameters ***********************
  
 using functional                               : Perdew Burke Ernzerhof
 relativistic treatment                         : Koelling-Harmon
 DFT+D: Semi-empirical dispersion correction    : on
 SEDC with                                      : G06 correction scheme

 ************************* Pseudopotential Parameters **************************
  
 pseudopotential representation                 : reciprocal space
 <beta|phi> representation                      : reciprocal space
 spin-orbit coupling                            : off

 **************************** Basis Set Parameters *****************************
  
 plane wave basis set cut-off                   :   600.0000   eV
 size of standard grid                          :     1.5000
 size of   fine   gmax                          :    18.8237   1/A
 largest prime factor in FFT                    :          5
 finite basis set correction                    : none

 **************************** Electronic Parameters ****************************
  
 number of  electrons                           :  74.00    
 net charge of system                           : +1.000    
 treating system as non-spin-polarized
 number of bands                                :         37

 ********************* Electronic Minimization Parameters **********************
  
 Method: Treating system as non-metallic,
         and number of  SD  steps               :          1
         and number of  CG  steps               :          4
  
 total energy / atom convergence tol.           : 0.2000E-05   eV
 eigen-energy convergence tolerance             : 0.1000E-05   eV
 max force / atom convergence tol.              : ignored
 convergence tolerance window                   :          3   cycles
 max. number of SCF cycles                      :        100
 periodic dipole correction                     : NONE

 ************************** Density Mixing Parameters **************************
  
 density-mixing scheme                          : Pulay
 max. length of mixing history                  :         20
 charge density mixing amplitude                : 0.5000    
 cut-off energy for mixing                      :  600.0       eV
 charge density mixing g-vector                 :  1.500       1/A

 *********************** Population Analysis Parameters ************************
  
 Population analysis with cutoff                :  3.000       A
 Population analysis output                     : summary and pdos components

 ********************** Geometry Optimization Parameters ***********************
  
 optimization method                            : LBFGS
 max. no. of LBFGS updates                      : unbounded
 preconditioned LBFGS is activated
 preconditioner type                            : EXP
     stabilization constant                     :     0.1000
     parameter A                                :     3.0000
     nearest neighbor distance                  : automatic
     cut-off distance                           : automatic
     parameter mu                               : automatic
 variable cell method                           : fixed basis quality
 max. number of steps                           :        300
 estimated bulk modulus                         :  500.0       GPa
 estimated <frequency>                          :  1668.       cm-1
 geom line minimiser                            : on
 with line minimiser tolerance                  :     0.4000
 total energy convergence tolerance             : 0.2000E-04   eV/atom
        max ionic |force| tolerance             : 0.5000E-01   eV/A
 max ionic |displacement| tolerance             : 0.2000E-02   A
   max |stress component| tolerance             : 0.1000       GPa
 convergence tolerance window                   :          2   steps
 backup results every                           :          5   steps
 write geom trajectory file                     : on

 *******************************************************************************
  
 
                           -------------------------------
                                      Unit Cell
                           -------------------------------
        Real Lattice(A)                      Reciprocal Lattice(1/A)
    13.4840002    -0.0000006    -0.0000006        0.465973392   0.000000000   0.000000000
     0.0000000    20.4006996    -0.0000009        0.000000013   0.307988717   0.000000000
     0.0000000     0.0000000    45.0000000        0.000000006   0.000000006   0.139626340
 
                       Lattice parameters(A)       Cell Angles
                    a =     13.484000          alpha =   90.000003
                    b =     20.400700          beta  =   90.000003
                    c =     45.000000          gamma =   90.000003
 
                       Current cell volume =         12378.736702       A**3
                                   density =             0.015698   AMU/A**3
                                           =             0.026068     g/cm^3
 
                           -------------------------------
                                     Cell Contents
                           -------------------------------
                         Total number of ions in cell =   32
                      Total number of species in cell =    5
                        Max number of any one species =   20
 
            xxxxxxxxxxxxxxxxxxxxxxxxxxxxxxxxxxxxxxxxxxxxxxxxxxxxxxxxxxxx
            x  Element    Atom        Fractional coordinates of atoms  x
            x            Number           u          v          w      x
            x----------------------------------------------------------x
            x  H            1         0.429537   0.434419   0.536748   x 
            x  H            2         0.525388   0.495202   0.533652   x 
            x  H            3         0.370913   0.487542   0.584460   x 
            x  H            4         0.467755   0.546307   0.581708   x 
            x  H            5         0.335910   0.564894   0.484585   x 
            x  H            6         0.460138   0.535686   0.487090   x 
            x  H            7         0.272384   0.448196   0.488074   x 
            x  H            8         0.395963   0.418767   0.488253   x 
            x  H            9         0.299419   0.498035   0.437723   x 
            x  H           10         0.321788   0.412962   0.437748   x 
            x  H           11         0.624128   0.423912   0.438466   x 
            x  H           12         0.528150   0.574319   0.415928   x 
            x  H           13         0.546910   0.454269   0.383815   x 
            x  H           14         0.307365   0.521948   0.533729   x 
            x  H           15         0.393939   0.578645   0.532565   x 
            x  H           16         0.496890   0.397356   0.588057   x 
            x  H           17         0.593871   0.455546   0.585135   x 
            x  H           18         0.564457   0.425410   0.638262   x 
            x  H           19         0.438681   0.450882   0.635480   x 
            x  H           20         0.536071   0.509587   0.632494   x 
            x  C            1         0.450965   0.484883   0.542691   x 
            x  C            2         0.447193   0.495321   0.576261   x 
            x  C            3         0.382827   0.525106   0.493506   x 
            x  C            4         0.348436   0.459371   0.480554   x 
            x  C            5         0.350695   0.460148   0.446139   x 
            x  C            6         0.516933   0.448730   0.593004   x 
            x  C            7         0.513849   0.459225   0.626629   x 
            x  N            1         0.377143   0.531996   0.526887   x 
            x  O            1         0.507886   0.550566   0.433040   x 
            x  O            2         0.485207   0.455268   0.393887   x 
            x  O            3         0.560700   0.430496   0.447095   x 
            x  Si           1         0.478313   0.473404   0.428989   x 
            xxxxxxxxxxxxxxxxxxxxxxxxxxxxxxxxxxxxxxxxxxxxxxxxxxxxxxxxxxxx
 
 
                         No user defined ionic velocities
 
                           -------------------------------
                                   Details of Species
                           -------------------------------
 
                               Mass of species in AMU
                                    H    1.0080000
                                    C   12.0109997
                                    N   14.0070000
                                    O   15.9989996
                                    Si   28.0849991
 
                          Electric Quadrupole Moment (Barn)
                                    H    0.0028600 Isotope  2
                                    C    0.0332700 Isotope 11
                                    N    0.0204400 Isotope 14
                                    O   -0.0255800 Isotope 17
                                    Si    1.0000000 No Isotope Defined
 
                          Files used for pseudopotentials:
                                    H 1|0.6|9|10|15|10UU(qc=8)[]
                                    C 2|1.4|11|12|14.7|20UU:21UU(qc=7)[]
                                    N 2|1.1|12|16|19|20UU:21UU(qc=7)[]
                                    O 2|1.1|14|18|21|20UU:21UU(qc=7)[]
                                    Si 3|1.8|3.6|5|7|30UU:31UU:32UU[]
 
                           -------------------------------
                              k-Points For BZ Sampling
                           -------------------------------
                       MP grid size for SCF calculation is  1  1  1
                            with an offset of   0.000  0.000  0.000
                       Number of kpoints used =             1
 
                           -------------------------------
                               Symmetry and Constraints
                           -------------------------------
 
                      Maximum deviation from symmetry =  0.00000         ANG
 
                      Number of symmetry operations   =           1
                      Number of nonlinear constraints =           3
         There are no ionic constraints specified or generated for this cell
                      Point group of crystal =     1: C1, 1, 1
                      Space group of crystal =     1: P1, P 1
 
             Set iprint > 1 for details on symmetry rotations/translations
 
                         Centre of mass is NOT constrained
 
                         Number of cell constraints= 6
                         Cell constraints are:  0 0 0 0 0 0
 
                         External pressure/stress (GPa)
                          0.00000   0.00000   0.00000
                                    0.00000   0.00000
                                              0.00000
 
                                --------------------
                                  DFT-D parameters
                                --------------------
 
                          Dispersion-correction scheme : G06       
                        Parameter s6 :   0.750000 (default)
                        Parameter d  :  20.000000 (default)
 
        xxxxxxxxxxxxxxxxxxxxxxxxxxxxxxxxxxxxxxxxxxxxxxxxxxxxxxxxxxxxxxxxxxxx
        x              Atomic DFT-D parameters                             x
        x  Species      C6            R0                                   x
        x               eV A^6        Ang                                  x
        x------------------------------------------------------------------x
        x  H             1.4510       1.0010   (default)                   x
        x  C            18.1375       1.4520   (default)                   x
        x  N            12.7481       1.3970   (default)                   x
        x  O             7.2550       1.3420   (default)                   x
        x  Si           95.6622       1.7160   (default)                   x
        xxxxxxxxxxxxxxxxxxxxxxxxxxxxxxxxxxxxxxxxxxxxxxxxxxxxxxxxxxxxxxxxxxxx
 
 
+---------------- MEMORY AND SCRATCH DISK ESTIMATES PER PROCESS --------------+
|                                                     Memory          Disk    |
| Baseline code, static data and system overhead     6533.0 MB         0.0 MB |
| BLAS internal memory storage                          0.0 MB         0.0 MB |
| Model and support data                              540.6 MB         0.0 MB |
| Electronic energy minimisation requirements          31.8 MB         0.0 MB |
| Force calculation requirements                        6.8 MB         0.0 MB |
|                                               ----------------------------- |
| Approx. total storage required per process         7105.3 MB         0.0 MB |
|                                                                             |
| Requirements will fluctuate during execution and may exceed these estimates |
+-----------------------------------------------------------------------------+
Calculating approximate eigenstates for fixed initial Hamiltonian
Cut-off for approx. calculation is  119.774 eV
Improving approx. states at cut-off of  300.000 eV
Resetting cut-off to  600.000 eV
Calculating total energy with cut-off of  600.000 eV.
------------------------------------------------------------------------ <-- SCF
SCF loop      Energy                           Energy gain       Timer   <-- SCF
                                               per atom          (sec)   <-- SCF
------------------------------------------------------------------------ <-- SCF
Initial  -2.94229802E+003                                         31.08  <-- SCF
      1  -3.20287416E+003                    8.14300448E+000      31.91  <-- SCF
      2  -3.20351465E+003                    2.00154067E-002      32.83  <-- SCF
      3  -3.19279942E+003                   -3.34851233E-001      33.87  <-- SCF
      4  -3.19161163E+003                   -3.71182681E-002      35.06  <-- SCF
      5  -3.19099977E+003                   -1.91207772E-002      36.09  <-- SCF
      6  -3.19090829E+003                   -2.85872470E-003      37.41  <-- SCF
      7  -3.19084523E+003                   -1.97037156E-003      38.44  <-- SCF
      8  -3.19083489E+003                   -3.23180937E-004      39.57  <-- SCF
      9  -3.19082262E+003                   -3.83479382E-004      40.59  <-- SCF
     10  -3.19080878E+003                   -4.32677499E-004      41.65  <-- SCF
     11  -3.19078224E+003                   -8.29327790E-004      42.66  <-- SCF
     12  -3.19072433E+003                   -1.80958714E-003      43.71  <-- SCF
     13  -3.19065158E+003                   -2.27333268E-003      44.71  <-- SCF
     14  -3.19057859E+003                   -2.28092927E-003      45.75  <-- SCF
     15  -3.19053017E+003                   -1.51320759E-003      46.75  <-- SCF
     16  -3.19049054E+003                   -1.23846044E-003      47.75  <-- SCF
     17  -3.19045807E+003                   -1.01477894E-003      48.76  <-- SCF
     18  -3.19043510E+003                   -7.17805904E-004      49.77  <-- SCF
     19  -3.19041134E+003                   -7.42297733E-004      50.71  <-- SCF
     20  -3.19037994E+003                   -9.81331245E-004      51.71  <-- SCF
     21  -3.19035331E+003                   -8.32161528E-004      52.67  <-- SCF
     22  -3.19034515E+003                   -2.54971155E-004      53.63  <-- SCF
     23  -3.19034215E+003                   -9.39979078E-005      54.61  <-- SCF
     24  -3.19034731E+003                    1.61352854E-004      55.57  <-- SCF
     25  -3.19035243E+003                    1.59973394E-004      56.41  <-- SCF
     26  -3.19035773E+003                    1.65632721E-004      57.22  <-- SCF
     27  -3.19036204E+003                    1.34652935E-004      58.11  <-- SCF
     28  -3.19036574E+003                    1.15688869E-004      58.92  <-- SCF
     29  -3.19036802E+003                    7.13753688E-005      59.73  <-- SCF
     30  -3.19037106E+003                    9.49334768E-005      60.57  <-- SCF
     31  -3.19037225E+003                    3.70134853E-005      61.38  <-- SCF
     32  -3.19037395E+003                    5.32207998E-005      62.19  <-- SCF
     33  -3.19037462E+003                    2.09330447E-005      63.00  <-- SCF
     34  -3.19037545E+003                    2.61127792E-005      63.80  <-- SCF
     35  -3.19037608E+003                    1.95079905E-005      64.61  <-- SCF
     36  -3.19037659E+003                    1.59169135E-005      65.42  <-- SCF
     37  -3.19037699E+003                    1.26108567E-005      66.23  <-- SCF
     38  -3.19037737E+003                    1.19526739E-005      67.03  <-- SCF
     39  -3.19037775E+003                    1.16658492E-005      67.84  <-- SCF
     40  -3.19037794E+003                    6.16030297E-006      68.65  <-- SCF
     41  -3.19037818E+003                    7.24686877E-006      69.46  <-- SCF
     42  -3.19037832E+003                    4.50645762E-006      70.27  <-- SCF
     43  -3.19037846E+003                    4.45754842E-006      71.08  <-- SCF
     44  -3.19037854E+003                    2.28494771E-006      71.88  <-- SCF
     45  -3.19037858E+003                    1.31055523E-006      72.69  <-- SCF
     46  -3.19037860E+003                    8.08347031E-007      73.50  <-- SCF
     47  -3.19037861E+003                    3.15403992E-007      74.31  <-- SCF
------------------------------------------------------------------------ <-- SCF
 
Final energy =  -3190.378614338     eV
(energy not corrected for finite basis set)
 
(SEDC) Total Energy Correction : -0.776217E+00 eV

Dispersion corrected final energy* =  -3191.154831071     eV

Writing analysis data to Conf_0018.castep_bin

Writing model to Conf_0018.check

WARNING - nonlinear constraints cannot be used with LBFGS algorithm
        - consider setting geom_method=DELOCALIZED
 
        => Turning nonlinear constraints OFF
 
+---------------- MEMORY AND SCRATCH DISK ESTIMATES PER PROCESS --------------+
|                                                     Memory          Disk    |
| Model and support data                              550.1 MB         0.0 MB |
| Electronic energy minimisation requirements          31.8 MB         0.0 MB |
| Geometry minimisation requirements                   34.8 MB         0.0 MB |
|                                               ----------------------------- |
| Approx. total storage required per process          616.7 MB         0.0 MB |
|                                                                             |
| Requirements will fluctuate during execution and may exceed these estimates |
+-----------------------------------------------------------------------------+
 
 
 ************************************** Forces **************************************
 *                                                                                  *
 *                           Cartesian components (eV/A)                            *
 * -------------------------------------------------------------------------------- *
 *                         x                    y                    z              *
 *                                                                                  *
 * H               1     -0.05980              0.28481             -0.07027         *
 * H               2     -0.26304              0.04221             -0.09716         *
 * H               3      0.00441              0.00101             -0.01620         *
 * H               4     -0.04547              0.03441             -0.03309         *
 * H               5      0.15526             -0.09794             -0.01332         *
 * H               6     -0.10556              0.00789              0.09799         *
 * H               7     -0.00554              0.09815              0.04490         *
 * H               8      0.01681              0.17524              0.07021         *
 * H               9      0.14491              0.01890             -0.03757         *
 * H              10      0.06845              0.08114              0.13697         *
 * H              11      0.85869             -0.17125             -0.35573         *
 * H              12      0.17835              0.53258             -0.75041         *
 * H              13      0.86978             -0.09604             -0.53597         *
 * H              14     -0.66357             -0.09052              0.34760         *
 * H              15      0.08288              0.64093              0.26946         *
 * H              16      0.00602              0.09116             -0.04091         *
 * H              17     -0.08621              0.00587             -0.05205         *
 * H              18     -0.10942              0.10407             -0.13943         *
 * H              19      0.05897              0.04234             -0.04767         *
 * H              20     -0.03368             -0.07646             -0.01691         *
 * C               1     -0.37008              0.30414              0.40343         *
 * C               2      0.00700             -0.00064             -0.00246         *
 * C               3     -0.14951              0.40879             -0.76303         *
 * C               4      0.13403             -0.18286              0.20777         *
 * C               5      0.32672             -0.03864             -0.17642         *
 * C               6      0.17333             -0.19981             -0.00394         *
 * C               7     -0.05345              0.08302              0.13516         *
 * N               1      1.39003             -1.75122             -0.62818         *
 * O               1     -0.27770              0.40575              1.09567         *
 * O               2     -1.43696             -0.20754             -0.05586         *
 * O               3     -0.84036             -0.39857              1.24005         *
 * Si              1      0.02469             -0.05091             -0.21264         *
 *                                                                                  *
 ************************************************************************************
 EXP precond LBFGS => estimated nearest neighbor distance :  1.625       A
 EXP precond LBFGS => estimated cutoff distance :  3.250       A
 doing test perturbation to get energy scale for EXP preconditioner
 
                           -------------------------------
                                     Cell Contents
                           -------------------------------
 
            xxxxxxxxxxxxxxxxxxxxxxxxxxxxxxxxxxxxxxxxxxxxxxxxxxxxxxxxxxxxxxxxx
            x  Element         Atom        Fractional coordinates of atoms  x
            x                 Number           u          v          w      x
            x---------------------------------------------------------------x
            x  H                 1         0.430669   0.434959   0.537058   x
            x  H                 2         0.526590   0.495519   0.533964   x
            x  H                 3         0.371961   0.487890   0.584730   x
            x  H                 4         0.468925   0.546409   0.581981   x
            x  H                 5         0.336893   0.564914   0.484926   x
            x  H                 6         0.461301   0.535834   0.487430   x
            x  H                 7         0.273226   0.448691   0.488413   x
            x  H                 8         0.397051   0.419355   0.488593   x
            x  H                 9         0.300326   0.498342   0.438080   x
            x  H                10         0.322743   0.413567   0.438105   x
            x  H                11         0.625308   0.424485   0.438823   x
            x  H                12         0.529353   0.574298   0.416288   x
            x  H                13         0.548115   0.454742   0.384176   x
            x  H                14         0.308289   0.522154   0.534041   x
            x  H                15         0.395024   0.578605   0.532878   x
            x  H                16         0.498080   0.398004   0.588324   x
            x  H                17         0.595068   0.456015   0.585405   x
            x  H                18         0.565661   0.425978   0.638475   x
            x  H                19         0.439824   0.451367   0.635696   x
            x  H                20         0.537275   0.509846   0.632714   x
            x  C                 1         0.452121   0.485242   0.542997   x
            x  C                 2         0.448344   0.495638   0.576538   x
            x  C                 3         0.383895   0.525300   0.493843   x
            x  C                 4         0.349444   0.459826   0.480897   x
            x  C                 5         0.351707   0.460600   0.446494   x
            x  C                 6         0.518132   0.449223   0.593266   x
            x  C                 7         0.515047   0.459681   0.626856   x
            x  N                 1         0.378201   0.532160   0.527204   x
            x  O                 1         0.509082   0.550650   0.433398   x
            x  O                 2         0.486390   0.455737   0.394248   x
            x  O                 3         0.561905   0.431048   0.447450   x
            x  Si                1         0.479491   0.473807   0.429348   x
            xxxxxxxxxxxxxxxxxxxxxxxxxxxxxxxxxxxxxxxxxxxxxxxxxxxxxxxxxxxxxxxxx
 
 
------------------------------------------------------------------------ <-- SCF
SCF loop      Energy                           Energy gain       Timer   <-- SCF
                                               per atom          (sec)   <-- SCF
------------------------------------------------------------------------ <-- SCF
Initial  -3.19159683E+003                                         76.37  <-- SCF
      1  -3.19035232E+003                   -3.88910470E-002      77.19  <-- SCF
      2  -3.19037507E+003                    7.10910244E-004      78.37  <-- SCF
      3  -3.19035302E+003                   -6.89154860E-004      79.43  <-- SCF
      4  -3.19036653E+003                    4.22319518E-004      80.45  <-- SCF
      5  -3.19036665E+003                    3.71269859E-006      81.26  <-- SCF
      6  -3.19036676E+003                    3.64989445E-006      82.04  <-- SCF
      7  -3.19036682E+003                    1.69220884E-006      82.82  <-- SCF
      8  -3.19036686E+003                    1.35158693E-006      83.59  <-- SCF
      9  -3.19036690E+003                    1.21931648E-006      84.37  <-- SCF
     10  -3.19036693E+003                    8.72975951E-007      85.15  <-- SCF
     11  -3.19036697E+003                    1.19086428E-006      85.94  <-- SCF
     12  -3.19036698E+003                    5.09031183E-007      86.72  <-- SCF
------------------------------------------------------------------------ <-- SCF
 
Final energy =  -3190.366983655     eV
(energy not corrected for finite basis set)
 
(SEDC) Total Energy Correction : -0.776794E+00 eV

Dispersion corrected final energy* =  -3191.143777596     eV
 
 ************************************** Forces **************************************
 *                                                                                  *
 *                           Cartesian components (eV/A)                            *
 * -------------------------------------------------------------------------------- *
 *                         x                    y                    z              *
 *                                                                                  *
 * H               1     -0.06672              0.16709             -0.09825         *
 * H               2     -0.28081              0.05240             -0.11040         *
 * H               3      0.05306              0.00706             -0.01658         *
 * H               4     -0.01142              0.16138             -0.02081         *
 * H               5      0.14313             -0.03146             -0.03387         *
 * H               6     -0.14685              0.01553              0.11672         *
 * H               7      0.05909              0.10514              0.03387         *
 * H               8      0.02739              0.10988              0.06620         *
 * H               9      0.14034              0.05874             -0.03875         *
 * H              10      0.05784             -0.00408              0.12820         *
 * H              11      0.87804             -0.15417             -0.35765         *
 * H              12      0.20324              0.57968             -0.78432         *
 * H              13      0.83868             -0.10181             -0.54053         *
 * H              14     -0.59281             -0.09167              0.33093         *
 * H              15      0.13424              0.81394              0.30614         *
 * H              16     -0.00315             -0.01258             -0.05099         *
 * H              17     -0.07537              0.03158             -0.06745         *
 * H              18     -0.08362              0.05768             -0.11843         *
 * H              19      0.06551              0.03283             -0.04108         *
 * H              20     -0.00732              0.03458              0.01616         *
 * C               1     -0.34790              0.33498              0.40211         *
 * C               2     -0.05436             -0.05467             -0.00661         *
 * C               3     -0.08251              0.45452             -0.75018         *
 * C               4      0.06737             -0.25471              0.20128         *
 * C               5      0.38289             -0.01641             -0.16660         *
 * C               6      0.20138             -0.18764             -0.00208         *
 * C               7     -0.11113              0.02306              0.13264         *
 * N               1      1.23786             -1.85679             -0.61384         *
 * O               1     -0.24892              0.56889              1.14547         *
 * O               2     -1.46257             -0.21271             -0.09617         *
 * O               3     -0.84829             -0.43680              1.27140         *
 * Si              1     -0.06630             -0.19346             -0.23655         *
 *                                                                                  *
 ************************************************************************************
 EXP precond LBFGS => estimated parameter mu :  2.269       eV/A**2
 LBFGS: finished iteration     0 with enthalpy= -3.19115483E+003 eV
  
 +-----------+-----------------+-----------------+------------+-----+ <-- LBFGS
 | Parameter |      value      |    tolerance    |    units   | OK? | <-- LBFGS
 +-----------+-----------------+-----------------+------------+-----+ <-- LBFGS
 |  dE/ion   |   0.000000E+000 |   2.000000E-005 |         eV | No  | <-- LBFGS
 |  |F|max   |   2.314465E+000 |   5.000000E-002 |       eV/A | No  | <-- LBFGS
 |  |dR|max  |   7.853740E-015 |   2.000000E-003 |          A | No  | <-- LBFGS
 +-----------+-----------------+-----------------+------------+-----+ <-- LBFGS
  

================================================================================
 Starting LBFGS iteration          1 ...
================================================================================
  
 +------------+-------------+-------------+-----------------+ <-- min LBFGS
 |    Step    |   lambda    |   F.delta'  |    enthalpy     | <-- min LBFGS
 +------------+-------------+-------------+-----------------+ <-- min LBFGS
 |  previous  |    0.000000 |    1.773680 |    -3191.154831 | <-- min LBFGS
 +------------+-------------+-------------+-----------------+ <-- min LBFGS
  

--------------------------------------------------------------------------------
 LBFGS: starting iteration         1 with trial guess (lambda=  1.000000)
--------------------------------------------------------------------------------
 
                           -------------------------------
                                     Cell Contents
                           -------------------------------
 
            xxxxxxxxxxxxxxxxxxxxxxxxxxxxxxxxxxxxxxxxxxxxxxxxxxxxxxxxxxxxxxxxx
            x  Element         Atom        Fractional coordinates of atoms  x
            x                 Number           u          v          w      x
            x---------------------------------------------------------------x
            x  H                 1         0.429541   0.435472   0.536386   x
            x  H                 2         0.524216   0.495486   0.533208   x
            x  H                 3         0.370998   0.487662   0.583973   x
            x  H                 4         0.467590   0.546559   0.581191   x
            x  H                 5         0.339597   0.564095   0.483927   x
            x  H                 6         0.461824   0.535512   0.486754   x
            x  H                 7         0.275547   0.448370   0.488146   x
            x  H                 8         0.398800   0.419225   0.488429   x
            x  H                 9         0.303718   0.498253   0.437798   x
            x  H                10         0.325570   0.413358   0.438159   x
            x  H                11         0.625454   0.418863   0.441440   x
            x  H                12         0.524649   0.582224   0.416252   x
            x  H                13         0.542920   0.451949   0.382477   x
            x  H                14         0.307759   0.519747   0.533692   x
            x  H                15         0.397604   0.578578   0.532401   x
            x  H                16         0.496674   0.398042   0.587388   x
            x  H                17         0.593119   0.455908   0.584447   x
            x  H                18         0.562980   0.426577   0.637358   x
            x  H                19         0.438200   0.451785   0.634747   x
            x  H                20         0.535064   0.510053   0.631811   x
            x  C                 1         0.450375   0.485393   0.542632   x
            x  C                 2         0.447186   0.495502   0.575793   x
            x  C                 3         0.385290   0.525191   0.492430   x
            x  C                 4         0.351874   0.459049   0.480680   x
            x  C                 5         0.354793   0.460183   0.446218   x
            x  C                 6         0.517002   0.448827   0.592384   x
            x  C                 7         0.512899   0.460099   0.626028   x
            x  N                 1         0.382871   0.528019   0.526070   x
            x  O                 1         0.502994   0.556861   0.435513   x
            x  O                 2         0.472780   0.452979   0.393360   x
            x  O                 3         0.555219   0.425509   0.451616   x
            x  Si                1         0.474701   0.473068   0.429949   x
            xxxxxxxxxxxxxxxxxxxxxxxxxxxxxxxxxxxxxxxxxxxxxxxxxxxxxxxxxxxxxxxxx
 
 
------------------------------------------------------------------------ <-- SCF
SCF loop      Energy                           Energy gain       Timer   <-- SCF
                                               per atom          (sec)   <-- SCF
------------------------------------------------------------------------ <-- SCF
Initial  -3.21143406E+003                                         88.10  <-- SCF
      1  -3.18702859E+003                   -7.62671035E-001      88.95  <-- SCF
      2  -3.19005266E+003                    9.45022638E-002      90.29  <-- SCF
      3  -3.18947857E+003                   -1.79404807E-002      91.44  <-- SCF
      4  -3.18957232E+003                    2.92961855E-003      92.54  <-- SCF
      5  -3.18960941E+003                    1.15926853E-003      93.67  <-- SCF
      6  -3.18961287E+003                    1.08093766E-004      94.78  <-- SCF
      7  -3.18961377E+003                    2.80056488E-005      95.64  <-- SCF
      8  -3.18961434E+003                    1.79882140E-005      96.42  <-- SCF
      9  -3.18961479E+003                    1.39888314E-005      97.28  <-- SCF
     10  -3.18961497E+003                    5.50951097E-006      98.07  <-- SCF
     11  -3.18961501E+003                    1.19912621E-006      98.85  <-- SCF
     12  -3.18961509E+003                    2.54783814E-006      99.63  <-- SCF
     13  -3.18961507E+003                   -6.80552596E-007     100.42  <-- SCF
     14  -3.18961510E+003                    1.17656238E-006     101.21  <-- SCF
------------------------------------------------------------------------ <-- SCF
 
Final energy =  -3189.615103218     eV
(energy not corrected for finite basis set)
 
(SEDC) Total Energy Correction : -0.787341E+00 eV

Dispersion corrected final energy* =  -3190.402444123     eV
 
 ************************************** Forces **************************************
 *                                                                                  *
 *                           Cartesian components (eV/A)                            *
 * -------------------------------------------------------------------------------- *
 *                         x                    y                    z              *
 *                                                                                  *
 * H               1      0.08007             -0.22706              0.09780         *
 * H               2      0.03338             -0.15778              0.13788         *
 * H               3     -0.04196              0.00585              0.02998         *
 * H               4     -0.04313              0.02523              0.02050         *
 * H               5     -0.44786              0.58214             -0.10642         *
 * H               6      0.44800              0.09736             -0.25929         *
 * H               7      0.02179              0.09209              0.00762         *
 * H               8      0.31774             -0.15160              0.18860         *
 * H               9      0.05014             -0.05309              0.00572         *
 * H              10     -0.03959             -0.18370             -0.09122         *
 * H              11     -2.89461              0.42305              1.42531         *
 * H              12     -0.86842             -1.58544              2.43009         *
 * H              13     -3.02182              0.06661              1.53042         *
 * H              14      1.53324              0.19381             -0.56695         *
 * H              15     -0.31948             -1.73799             -0.41315         *
 * H              16     -0.04088             -0.21429             -0.07902         *
 * H              17      0.16667              0.01924             -0.07523         *
 * H              18      0.17021             -0.17459              0.17907         *
 * H              19     -0.15972             -0.01812              0.01818         *
 * H              20      0.05429              0.16503             -0.00446         *
 * C               1      0.88495             -0.75717             -0.29190         *
 * C               2     -0.09811              0.15786              0.23160         *
 * C               3      0.38053             -0.95839              0.59058         *
 * C               4     -0.26942              0.21439             -0.47650         *
 * C               5     -1.53456             -0.17484              0.71102         *
 * C               6     -0.11330              0.20495              0.19593         *
 * C               7     -0.04081             -0.01435             -0.30422         *
 * N               1     -2.39626              2.83158              0.81526         *
 * O               1      0.49608             -0.58237             -2.65222         *
 * O               2      3.01489              0.31503             -0.05072         *
 * O               3      1.67120              0.76378             -2.51443         *
 * Si              1      3.00677              0.83278             -0.72983         *
 *                                                                                  *
 ************************************************************************************
  
 +------------+-------------+-------------+-----------------+ <-- min LBFGS
 |    Step    |   lambda    |   F.delta'  |    enthalpy     | <-- min LBFGS
 +------------+-------------+-------------+-----------------+ <-- min LBFGS
 |  previous  |    0.000000 |    1.773680 |    -3191.154831 | <-- min LBFGS
 | trial step |    1.000000 |   -3.551647 |    -3190.402444 | <-- min LBFGS
 +------------+-------------+-------------+-----------------+ <-- min LBFGS
  

--------------------------------------------------------------------------------
 LBFGS: improving iteration         1 with line minimization (lambda=  0.333065)
--------------------------------------------------------------------------------
 
                           -------------------------------
                                     Cell Contents
                           -------------------------------
 
            xxxxxxxxxxxxxxxxxxxxxxxxxxxxxxxxxxxxxxxxxxxxxxxxxxxxxxxxxxxxxxxxx
            x  Element         Atom        Fractional coordinates of atoms  x
            x                 Number           u          v          w      x
            x---------------------------------------------------------------x
            x  H                 1         0.429538   0.434769   0.536628   x
            x  H                 2         0.524998   0.495296   0.533504   x
            x  H                 3         0.370942   0.487582   0.584298   x
            x  H                 4         0.467700   0.546391   0.581536   x
            x  H                 5         0.337138   0.564628   0.484366   x
            x  H                 6         0.460699   0.535628   0.486978   x
            x  H                 7         0.273437   0.448254   0.488098   x
            x  H                 8         0.396908   0.418919   0.488312   x
            x  H                 9         0.300851   0.498108   0.437748   x
            x  H                10         0.323048   0.413094   0.437885   x
            x  H                11         0.624570   0.422230   0.439457   x
            x  H                12         0.526984   0.576952   0.416036   x
            x  H                13         0.545581   0.453497   0.383370   x
            x  H                14         0.307496   0.521215   0.533717   x
            x  H                15         0.395160   0.578622   0.532510   x
            x  H                16         0.496818   0.397585   0.587834   x
            x  H                17         0.593621   0.455667   0.584906   x
            x  H                18         0.563965   0.425798   0.637961   x
            x  H                19         0.438521   0.451183   0.635235   x
            x  H                20         0.535736   0.509742   0.632266   x
            x  C                 1         0.450769   0.485053   0.542672   x
            x  C                 2         0.447190   0.495381   0.576105   x
            x  C                 3         0.383647   0.525134   0.493147   x
            x  C                 4         0.349581   0.459264   0.480596   x
            x  C                 5         0.352059   0.460160   0.446165   x
            x  C                 6         0.516956   0.448763   0.592798   x
            x  C                 7         0.513532   0.459516   0.626429   x
            x  N                 1         0.379051   0.530672   0.526615   x
            x  O                 1         0.506257   0.552663   0.433864   x
            x  O                 2         0.481068   0.454505   0.393712   x
            x  O                 3         0.558875   0.428835   0.448601   x
            x  Si                1         0.477110   0.473292   0.429309   x
            xxxxxxxxxxxxxxxxxxxxxxxxxxxxxxxxxxxxxxxxxxxxxxxxxxxxxxxxxxxxxxxxx
 
 
------------------------------------------------------------------------ <-- SCF
SCF loop      Energy                           Energy gain       Timer   <-- SCF
                                               per atom          (sec)   <-- SCF
------------------------------------------------------------------------ <-- SCF
Initial  -3.20680992E+003                                        102.58  <-- SCF
      1  -3.19002570E+003                   -5.24506893E-001     103.42  <-- SCF
      2  -3.19073518E+003                    2.21713476E-002     104.53  <-- SCF
      3  -3.19042480E+003                   -9.69943583E-003     105.59  <-- SCF
      4  -3.19050925E+003                    2.63903694E-003     106.71  <-- SCF
      5  -3.19053496E+003                    8.03404139E-004     107.78  <-- SCF
      6  -3.19053578E+003                    2.56154055E-005     108.71  <-- SCF
      7  -3.19053627E+003                    1.53856781E-005     109.48  <-- SCF
      8  -3.19053660E+003                    1.03661763E-005     110.27  <-- SCF
      9  -3.19053700E+003                    1.23908370E-005     111.05  <-- SCF
     10  -3.19053731E+003                    9.69988566E-006     111.83  <-- SCF
     11  -3.19053757E+003                    8.22342385E-006     112.61  <-- SCF
     12  -3.19053794E+003                    1.15717269E-005     113.39  <-- SCF
     13  -3.19053806E+003                    3.66843063E-006     114.18  <-- SCF
     14  -3.19053825E+003                    5.90560162E-006     114.97  <-- SCF
     15  -3.19053835E+003                    3.18730355E-006     115.76  <-- SCF
     16  -3.19053845E+003                    3.08352750E-006     116.55  <-- SCF
     17  -3.19053847E+003                    6.41600263E-007     117.34  <-- SCF
     18  -3.19053852E+003                    1.65022882E-006     118.13  <-- SCF
     19  -3.19053853E+003                    4.12107306E-007     118.93  <-- SCF
     20  -3.19053856E+003                    8.07433024E-007     119.72  <-- SCF
------------------------------------------------------------------------ <-- SCF
 
Final energy =  -3190.538560105     eV
(energy not corrected for finite basis set)
 
(SEDC) Total Energy Correction : -0.780426E+00 eV

Dispersion corrected final energy* =  -3191.318986255     eV
 
 ************************************** Forces **************************************
 *                                                                                  *
 *                           Cartesian components (eV/A)                            *
 * -------------------------------------------------------------------------------- *
 *                         x                    y                    z              *
 *                                                                                  *
 * H               1     -0.01730              0.12078             -0.01481         *
 * H               2     -0.16083             -0.02689             -0.01996         *
 * H               3     -0.01176             -0.00260              0.00163         *
 * H               4     -0.04620              0.02619             -0.01137         *
 * H               5     -0.03319              0.10844             -0.03690         *
 * H               6      0.07256              0.03180             -0.02137         *
 * H               7      0.00654              0.09138              0.03406         *
 * H               8      0.11499              0.06516              0.10903         *
 * H               9      0.11491             -0.00944             -0.02062         *
 * H              10      0.03380             -0.01030              0.06289         *
 * H              11     -0.74780              0.09272              0.38514         *
 * H              12     -0.26991             -0.31888              0.55427         *
 * H              13     -0.78598             -0.02899              0.38241         *
 * H              14      0.18463              0.05145              0.00817         *
 * H              15     -0.08837             -0.29787              0.00842         *
 * H              16     -0.01039             -0.01429             -0.04788         *
 * H              17     -0.00394              0.00357             -0.05409         *
 * H              18     -0.01752              0.00926             -0.02849         *
 * H              19     -0.01399              0.01844             -0.02822         *
 * H              20     -0.00627             -0.00213             -0.01061         *
 * C               1     -0.02493              0.01123              0.12571         *
 * C               2     -0.02857              0.04615              0.07224         *
 * C               3      0.01471             -0.03335             -0.31850         *
 * C               4      0.00807             -0.05562             -0.01556         *
 * C               5     -0.19345             -0.07501              0.07086         *
 * C               6      0.07564             -0.06981              0.06381         *
 * C               7     -0.04854              0.04400             -0.00730         *
 * N               1      0.04078             -0.14692             -0.06338         *
 * O               1      0.03607              0.01989             -0.43623         *
 * O               2      0.46243             -0.05537             -0.18279         *
 * O               3      0.22201              0.04124             -0.25475         *
 * Si              1      1.12180              0.36578             -0.30581         *
 *                                                                                  *
 ************************************************************************************
  
 +------------+-------------+-------------+-----------------+ <-- min LBFGS
 |    Step    |   lambda    |   F.delta'  |    enthalpy     | <-- min LBFGS
 +------------+-------------+-------------+-----------------+ <-- min LBFGS
 |  previous  |    0.000000 |    1.773680 |    -3191.154831 | <-- min LBFGS
 | trial step |    1.000000 |   -3.551647 |    -3190.402444 | <-- min LBFGS
 |  line step |    0.333065 |   -0.287917 |    -3191.318986 | <-- min LBFGS
 +------------+-------------+-------------+-----------------+ <-- min LBFGS
  
 LBFGS: finished iteration     1 with enthalpy= -3.19131899E+003 eV
  
 +-----------+-----------------+-----------------+------------+-----+ <-- LBFGS
 | Parameter |      value      |    tolerance    |    units   | OK? | <-- LBFGS
 +-----------+-----------------+-----------------+------------+-----+ <-- LBFGS
 |  dE/ion   |   5.129850E-003 |   2.000000E-005 |         eV | No  | <-- LBFGS
 |  |F|max   |   1.218908E+000 |   5.000000E-002 |       eV/A | No  | <-- LBFGS
 |  |dR|max  |   7.965671E-002 |   2.000000E-003 |          A | No  | <-- LBFGS
 +-----------+-----------------+-----------------+------------+-----+ <-- LBFGS
  

================================================================================
 Starting LBFGS iteration          2 ...
================================================================================
  
 +------------+-------------+-------------+-----------------+ <-- min LBFGS
 |    Step    |   lambda    |   F.delta'  |    enthalpy     | <-- min LBFGS
 +------------+-------------+-------------+-----------------+ <-- min LBFGS
 |  previous  |    0.000000 |    0.621189 |    -3191.318986 | <-- min LBFGS
 +------------+-------------+-------------+-----------------+ <-- min LBFGS
  

--------------------------------------------------------------------------------
 LBFGS: starting iteration         2 with trial guess (lambda=  1.000000)
--------------------------------------------------------------------------------
 
                           -------------------------------
                                     Cell Contents
                           -------------------------------
 
            xxxxxxxxxxxxxxxxxxxxxxxxxxxxxxxxxxxxxxxxxxxxxxxxxxxxxxxxxxxxxxxxx
            x  Element         Atom        Fractional coordinates of atoms  x
            x                 Number           u          v          w      x
            x---------------------------------------------------------------x
            x  H                 1         0.429583   0.435271   0.536291   x
            x  H                 2         0.523903   0.495080   0.533112   x
            x  H                 3         0.370606   0.487484   0.583912   x
            x  H                 4         0.467090   0.546396   0.581122   x
            x  H                 5         0.339391   0.564538   0.483716   x
            x  H                 6         0.462645   0.535524   0.486486   x
            x  H                 7         0.276071   0.448726   0.488081   x
            x  H                 8         0.399774   0.419429   0.488433   x
            x  H                 9         0.304601   0.498303   0.437810   x
            x  H                10         0.326216   0.413382   0.438235   x
            x  H                11         0.618135   0.422505   0.441715   x
            x  H                12         0.524228   0.577336   0.417657   x
            x  H                13         0.538786   0.452857   0.384441   x
            x  H                14         0.309087   0.520068   0.533405   x
            x  H                15         0.396695   0.577224   0.532140   x
            x  H                16         0.496305   0.397633   0.587247   x
            x  H                17         0.592946   0.455656   0.584303   x
            x  H                18         0.562675   0.426257   0.637250   x
            x  H                19         0.437585   0.451579   0.634591   x
            x  H                20         0.534662   0.509934   0.631663   x
            x  C                 1         0.450483   0.485009   0.542501   x
            x  C                 2         0.446776   0.495366   0.575764   x
            x  C                 3         0.385660   0.524997   0.492239   x
            x  C                 4         0.352317   0.459268   0.480549   x
            x  C                 5         0.354870   0.460263   0.446325   x
            x  C                 6         0.516689   0.448581   0.592316   x
            x  C                 7         0.512415   0.459896   0.625854   x
            x  N                 1         0.381755   0.528595   0.525993   x
            x  O                 1         0.504728   0.553748   0.434981   x
            x  O                 2         0.476837   0.453916   0.394311   x
            x  O                 3         0.554892   0.428880   0.450554   x
            x  Si                1         0.481401   0.474696   0.429658   x
            xxxxxxxxxxxxxxxxxxxxxxxxxxxxxxxxxxxxxxxxxxxxxxxxxxxxxxxxxxxxxxxxx
 
 
------------------------------------------------------------------------ <-- SCF
SCF loop      Energy                           Energy gain       Timer   <-- SCF
                                               per atom          (sec)   <-- SCF
------------------------------------------------------------------------ <-- SCF
Initial  -3.20444053E+003                                        121.17  <-- SCF
      1  -3.19018409E+003                   -4.45513745E-001     121.98  <-- SCF
      2  -3.19052253E+003                    1.05762199E-002     123.16  <-- SCF
      3  -3.19040620E+003                   -3.63507948E-003     124.18  <-- SCF
      4  -3.19048046E+003                    2.32063597E-003     125.20  <-- SCF
      5  -3.19048220E+003                    5.42426019E-005     126.39  <-- SCF
      6  -3.19048202E+003                   -5.64805312E-006     127.31  <-- SCF
      7  -3.19048164E+003                   -1.17701070E-005     128.18  <-- SCF
      8  -3.19048132E+003                   -1.01057696E-005     129.07  <-- SCF
      9  -3.19048131E+003                   -2.79214561E-007     129.88  <-- SCF
     10  -3.19048158E+003                    8.34047531E-006     130.66  <-- SCF
     11  -3.19048212E+003                    1.70775775E-005     131.45  <-- SCF
     12  -3.19048258E+003                    1.43752945E-005     132.23  <-- SCF
     13  -3.19048301E+003                    1.34527932E-005     133.01  <-- SCF
     14  -3.19048328E+003                    8.22495111E-006     133.80  <-- SCF
     15  -3.19048344E+003                    5.21882088E-006     134.58  <-- SCF
     16  -3.19048355E+003                    3.45112757E-006     135.42  <-- SCF
     17  -3.19048368E+003                    3.88042211E-006     136.22  <-- SCF
     18  -3.19048370E+003                    7.74139084E-007     137.01  <-- SCF
     19  -3.19048375E+003                    1.62357775E-006     137.80  <-- SCF
     20  -3.19048379E+003                    1.12737002E-006     138.59  <-- SCF
     21  -3.19048381E+003                    4.38844991E-007     139.39  <-- SCF
------------------------------------------------------------------------ <-- SCF
 
Final energy =  -3190.483805000     eV
(energy not corrected for finite basis set)
 
(SEDC) Total Energy Correction : -0.793887E+00 eV

Dispersion corrected final energy* =  -3191.277691987     eV
 
 ************************************** Forces **************************************
 *                                                                                  *
 *                           Cartesian components (eV/A)                            *
 * -------------------------------------------------------------------------------- *
 *                         x                    y                    z              *
 *                                                                                  *
 * H               1      0.00705             -0.28739              0.04625         *
 * H               2      0.17156             -0.08485              0.07069         *
 * H               3     -0.04816             -0.01050              0.02231         *
 * H               4     -0.01928              0.04272              0.03812         *
 * H               5     -0.15600              0.20281             -0.01706         *
 * H               6      0.19733              0.05244             -0.09997         *
 * H               7     -0.00183              0.05591              0.07180         *
[...]
 * H              17     -0.00182             -0.00036              0.00072         *
 * H              18      0.00168             -0.00111              0.00327         *
 * H              19     -0.00647              0.00334              0.00234         *
 * H              20      0.00354             -0.00816             -0.00029         *
 * C               1      0.00144             -0.00196              0.00166         *
 * C               2      0.00022             -0.00162             -0.00105         *
 * C               3      0.00337              0.00776             -0.00336         *
 * C               4     -0.00438             -0.00032             -0.00990         *
 * C               5      0.00135              0.00879              0.00570         *
 * C               6      0.00108             -0.00530             -0.00250         *
 * C               7      0.00283              0.01178             -0.00056         *
 * N               1      0.00458              0.00594              0.00289         *
 * O               1      0.00171             -0.00464              0.00712         *
 * O               2      0.00173              0.00297             -0.00456         *
 * O               3     -0.00698             -0.00230             -0.00014         *
 * Si              1     -0.00339             -0.00133              0.00377         *
 *                                                                                  *
 ************************************************************************************
 
 Pseudo atomic calculation performed for H 1s1
 
 Converged in 13 iterations to a total energy of -12.4790 eV
 
 Pseudo atomic calculation performed for C 2s2 2p2
 
 Converged in 17 iterations to a total energy of -148.5208 eV
 
 Pseudo atomic calculation performed for N 2s2 2p3
 
 Converged in 21 iterations to a total energy of -268.1820 eV
 
 Pseudo atomic calculation performed for O 2s2 2p4
 
 Converged in 23 iterations to a total energy of -432.6536 eV
 
 Pseudo atomic calculation performed for Si 3s2 3p2
 
 Converged in 11 iterations to a total energy of -165.0683 eV
Charge spilling parameter for spin component 1 = 1.55%
 
            Orbital Populations       
     Ion    Atom   Orbital             Charge
  -------------------------------------------
      H     1      S                    0.692
      H     2      S                    0.688
      H     3      S                    0.730
      H     4      S                    0.734
      H     5      S                    0.687
      H     6      S                    0.692
      H     7      S                    0.737
      H     8      S                    0.724
      H     9      S                    0.723
      H    10      S                    0.689
      H    11      S                    0.469
      H    12      S                    0.462
      H    13      S                    0.458
      H    14      S                    0.513
      H    15      S                    0.503
      H    16      S                    0.727
      H    17      S                    0.732
      H    18      S                    0.701
      H    19      S                    0.726
      H    20      S                    0.727
      C     1      S                    1.296
      C     1      Px                   1.059
      C     1      Py                   1.054
      C     1      Pz                   0.987
      C     2      S                    1.297
      C     2      Px                   1.148
      C     2      Py                   1.147
      C     2      Pz                   0.929
      C     3      S                    1.301
      C     3      Px                   1.252
      C     3      Py                   1.126
      C     3      Pz                   0.726
      C     4      S                    1.292
      C     4      Px                   1.189
      C     4      Py                   1.006
      C     4      Pz                   1.028
      C     5      S                    1.407
      C     5      Px                   1.302
      C     5      Py                   1.257
      C     5      Pz                   0.999
      C     6      S                    1.304
      C     6      Px                   1.096
      C     6      Py                   1.106
      C     6      Pz                   1.002
      C     7      S                    1.400
      C     7      Px                   1.211
      C     7      Py                   1.209
      C     7      Pz                   0.974
      N     1      S                    1.590
      N     1      Px                   1.382
      N     1      Py                   1.386
      N     1      Pz                   1.282
      O     1      S                    1.857
      O     1      Px                   1.886
      O     1      Py                   1.602
      O     1      Pz                   1.759
      O     2      S                    1.851
      O     2      Px                   1.750
      O     2      Py                   1.887
      O     2      Pz                   1.602
      O     3      S                    1.856
      O     3      Px                   1.537
      O     3      Py                   1.854
      O     3      Pz                   1.856
     Si     1      S                    0.727
     Si     1      Px                   0.450
     Si     1      Py                   0.332
     Si     1      Pz                   0.339
  -------------------------------------------
                           Total:      74.000
  -------------------------------------------
 
     Atomic Populations (Mulliken)
     -----------------------------
Species          Ion     s       p       d       f      Total   Charge (e)
==========================================================================
  H               1     0.692   0.000   0.000   0.000   0.692     0.308
  H               2     0.688   0.000   0.000   0.000   0.688     0.312
  H               3     0.730   0.000   0.000   0.000   0.730     0.270
  H               4     0.734   0.000   0.000   0.000   0.734     0.266
  H               5     0.687   0.000   0.000   0.000   0.687     0.313
  H               6     0.692   0.000   0.000   0.000   0.692     0.308
  H               7     0.737   0.000   0.000   0.000   0.737     0.263
  H               8     0.724   0.000   0.000   0.000   0.724     0.276
  H               9     0.723   0.000   0.000   0.000   0.723     0.277
  H              10     0.689   0.000   0.000   0.000   0.689     0.311
  H              11     0.469   0.000   0.000   0.000   0.469     0.531
  H              12     0.462   0.000   0.000   0.000   0.462     0.538
  H              13     0.458   0.000   0.000   0.000   0.458     0.542
  H              14     0.513   0.000   0.000   0.000   0.513     0.487
  H              15     0.503   0.000   0.000   0.000   0.503     0.497
  H              16     0.727   0.000   0.000   0.000   0.727     0.273
  H              17     0.732   0.000   0.000   0.000   0.732     0.268
  H              18     0.701   0.000   0.000   0.000   0.701     0.299
  H              19     0.726   0.000   0.000   0.000   0.726     0.274
  H              20     0.727   0.000   0.000   0.000   0.727     0.273
  C               1     1.296   3.100   0.000   0.000   4.396    -0.396
  C               2     1.297   3.224   0.000   0.000   4.521    -0.521
  C               3     1.301   3.104   0.000   0.000   4.405    -0.405
  C               4     1.292   3.223   0.000   0.000   4.515    -0.515
  C               5     1.407   3.558   0.000   0.000   4.965    -0.965
  C               6     1.304   3.204   0.000   0.000   4.508    -0.508
  C               7     1.400   3.395   0.000   0.000   4.794    -0.794
  N               1     1.590   4.050   0.000   0.000   5.639    -0.639
  O               1     1.857   5.246   0.000   0.000   7.104    -1.104
  O               2     1.851   5.239   0.000   0.000   7.089    -1.089
  O               3     1.856   5.247   0.000   0.000   7.103    -1.103
  Si              1     0.727   1.121   0.000   0.000   1.848     2.152
==========================================================================
 
                 Bond                   Population      Length (A)
======================================================================
              H 13 -- O 2                    0.53        0.96760
              H 11 -- O 3                    0.53        0.96909
              H 12 -- O 1                    0.53        0.96974
              H 15 -- N 1                    0.67        1.02953
              H 14 -- N 1                    0.67        1.03030
              H 1  -- C 1                    0.87        1.09543
              H 18 -- C 7                    0.81        1.09765
              H 6  -- C 3                    0.86        1.09834
              H 8  -- C 4                    0.87        1.09888
              H 2  -- C 1                    0.85        1.09893
              H 5  -- C 3                    0.84        1.09940
              H 19 -- C 7                    0.81        1.09956
              H 20 -- C 7                    0.81        1.09994
              H 10 -- C 5                    0.81        1.10106
              H 9  -- C 5                    0.82        1.10200
              H 17 -- C 6                    0.84        1.10250
              H 16 -- C 6                    0.84        1.10271
              H 3  -- C 2                    0.84        1.10415
              H 4  -- C 2                    0.85        1.10471
              H 7  -- C 4                    0.84        1.10472
               C 1 -- N 1                    0.50        1.51514
               C 3 -- N 1                    0.50        1.51612
               C 1 -- C 2                    0.72        1.51763
               C 3 -- C 4                    0.70        1.52039
               C 6 -- C 7                    0.65        1.52686
               C 2 -- C 6                    0.68        1.53357
               C 4 -- C 5                    0.65        1.53829
               O 2 -- Si 1                   0.52        1.63460
              H 14 -- H 15                  -0.11        1.64639
               O 3 -- Si 1                   0.49        1.65214
               O 1 -- Si 1                   0.47        1.66415
              H 9  -- H 10                  -0.09        1.76317
              H 16 -- H 17                  -0.12        1.76773
              H 18 -- H 19                  -0.10        1.77488
              H 19 -- H 20                  -0.10        1.77745
              H 1  -- H 2                   -0.11        1.77840
              H 3  -- H 4                   -0.12        1.77901
              H 7  -- H 8                   -0.12        1.78008
              H 5  -- H 6                   -0.11        1.78112
              H 18 -- H 20                  -0.10        1.78157
               C 5 -- Si 1                   0.61        1.87788
              H 15 -- C 1                   -0.13        2.08012
              H 14 -- C 1                   -0.12        2.08545
              H 15 -- C 3                   -0.13        2.09532
              H 14 -- C 3                   -0.12        2.09564
              H 2  -- N 1                   -0.11        2.10563
              H 5  -- N 1                   -0.11        2.10855
              H 1  -- N 1                   -0.11        2.10969
              H 6  -- N 1                   -0.11        2.11316
              H 7  -- C 3                   -0.14        2.15128
              H 8  -- C 3                   -0.13        2.15225
              H 10 -- C 4                   -0.12        2.15368
              H 8  -- C 5                   -0.13        2.15522
              H 17 -- C 2                   -0.14        2.15636
              H 3  -- C 1                   -0.14        2.16353
              H 16 -- C 2                   -0.13        2.16363
              H 4  -- C 1                   -0.13        2.16515
              H 3  -- C 6                   -0.12        2.16542
              H 4  -- C 6                   -0.12        2.16658
              H 17 -- C 7                   -0.13        2.16881
              H 1  -- H 8                   -0.05        2.16925
              H 16 -- C 7                   -0.13        2.17000
              H 1  -- C 2                   -0.12        2.17183
              H 18 -- C 6                   -0.12        2.17451
              H 20 -- C 6                   -0.12        2.17609
              H 19 -- C 6                   -0.12        2.17971
              H 5  -- C 4                   -0.12        2.18300
              H 7  -- C 5                   -0.13        2.18322
              H 2  -- C 2                   -0.12        2.18380
              H 6  -- C 4                   -0.11        2.18453
              H 9  -- C 4                   -0.12        2.18976
              H 12 -- Si 1                  -0.12        2.28187
              H 11 -- Si 1                  -0.14        2.28742
              H 13 -- Si 1                  -0.13        2.31886
              H 5  -- H 15                  -0.04        2.33297
              H 1  -- H 14                  -0.04        2.37774
              H 2  -- H 6                   -0.02        2.42518
              H 5  -- H 14                  -0.02        2.42738
              H 6  -- H 15                  -0.02        2.43091
              H 10 -- Si 1                  -0.11        2.43191
              H 4  -- H 15                  -0.01        2.44441
              H 7  -- H 14                  -0.00        2.44489
              H 2  -- H 15                  -0.03        2.44709
              H 7  -- H 10                  -0.04        2.46884
              H 8  -- H 10                  -0.03        2.47437
              H 9  -- Si 1                  -0.12        2.48502
              H 16 -- H 18                  -0.03        2.48865
              H 6  -- H 8                   -0.03        2.49716
               C 1 -- C 6                   -0.15        2.50442
               C 4 -- N 1                   -0.13        2.50571
              H 17 -- H 20                  -0.04        2.50725
              H 4  -- H 17                  -0.03        2.50784
              H 1  -- H 3                   -0.04        2.51003
               C 2 -- N 1                   -0.13        2.51047
              H 3  -- H 16                  -0.03        2.51048
              H 2  -- H 17                  -0.01        2.51976
              H 6  -- O 1                   -0.00        2.51986
              H 17 -- H 18                  -0.03        2.52965
               C 3 -- C 5                   -0.15        2.53143
               C 2 -- C 7                   -0.15        2.53633
              H 7  -- H 9                   -0.03        2.53721
              H 5  -- H 7                   -0.03        2.53730
              H 2  -- H 4                   -0.03        2.54256
              H 1  -- H 16                  -0.01        2.54531
              H 16 -- H 19                  -0.03        2.55296
              H 3  -- H 19                  -0.01        2.55765
               C 1 -- C 3                   -0.13        2.55785
              H 3  -- H 14                  -0.00        2.56559
              H 4  -- H 20                  -0.01        2.59106
              H 5  -- H 9                   -0.01        2.61928
              H 8  -- O 3                   -0.00        2.62166
              H 15 -- C 2                   -0.04        2.64249
               O 1 -- O 3                   -0.08        2.64396
              H 14 -- C 4                   -0.04        2.68958
              H 2  -- C 3                   -0.04        2.69696
              H 7  -- N 1                   -0.03        2.70078
              H 17 -- C 1                   -0.04        2.71167
              H 16 -- C 1                   -0.04        2.72448
              H 14 -- C 2                   -0.03        2.73422
               O 1 -- O 2                   -0.08        2.73983
              H 6  -- C 1                   -0.04        2.74582
              H 4  -- N 1                   -0.03        2.74932
              H 1  -- C 4                   -0.03        2.75798
               C 5 -- O 3                   -0.11        2.75943
              H 4  -- C 7                   -0.04        2.76192
              H 8  -- N 1                   -0.01        2.76756
              H 3  -- C 7                   -0.04        2.76997
              H 3  -- N 1                   -0.02        2.77099
              H 2  -- C 6                   -0.03        2.77327
              H 8  -- C 1                   -0.03        2.77935
              H 19 -- C 2                   -0.04        2.77978
              H 1  -- C 6                   -0.03        2.78217
              H 5  -- C 5                   -0.03        2.79235
              H 1  -- C 3                   -0.02        2.79859
               C 5 -- O 2                   -0.10        2.80567
               O 2 -- O 3                   -0.06        2.80572
              H 9  -- C 3                   -0.03        2.80785
              H 20 -- C 2                   -0.03        2.81818
              H 6  -- C 5                   -0.02        2.83530
              H 12 -- O 2                   -0.01        2.84716
               C 4 -- Si 1                  -0.14        2.87248
              H 10 -- O 2                   -0.01        2.88297
              H 11 -- O 1                   -0.01        2.91203
              H 6  -- Si 1                  -0.03        2.93552
              H 2  -- H 8                   -0.00        2.94824
              H 1  -- H 15                   0.03        2.95370
               C 5 -- O 1                   -0.09        2.95406
              H 2  -- H 14                   0.03        2.95629
              H 1  -- H 7                   -0.00        2.95700
              H 6  -- H 14                   0.03        2.96976
              H 3  -- H 15                  -0.00        2.97883
======================================================================
 
 
     Hirshfeld Analysis
     ------------------
Species   Ion     Hirshfeld Charge (e)
======================================
  H        1                 0.07
  H        2                 0.07
  H        3                 0.05
  H        4                 0.05
  H        5                 0.07
  H        6                 0.06
  H        7                 0.04
  H        8                 0.04
  H        9                 0.05
  H       10                 0.06
  H       11                 0.17
  H       12                 0.17
  H       13                 0.18
  H       14                 0.18
  H       15                 0.18
  H       16                 0.05
  H       17                 0.04
  H       18                 0.06
  H       19                 0.05
  H       20                 0.04
  C        1                 0.01
  C        2                -0.06
  C        3                 0.01
  C        4                -0.06
  C        5                -0.14
  C        6                -0.05
  C        7                -0.10
  N        1                 0.04
  O        1                -0.29
  O        2                -0.27
  O        3                -0.28
  Si       1                 0.47
======================================
 

Writing analysis data to Conf_0018.castep_bin

Writing model to Conf_0018.check
 
 A BibTeX formatted list of references used in this run has been written to 
 Conf_0018.bib
 
Initialisation time =     24.93 s
Calculation time    =    665.70 s
Finalisation time   =      1.07 s
Total time          =    691.70 s
Peak Memory Use     = 7916572 kB
 
Overall parallel efficiency rating: Satisfactory (67%)
 
Data was distributed by:-
G-vector (48-way); efficiency rating: Satisfactory (67%)
High Water Mark     = 1774488 kB
