 Job started on host drago31040141.mgmt.cc.csic.es
 at Sun Mar 31 01:36:35 2024

 +-------------------------------------------------+
 |                                                 |
 |      CCC   AA    SSS  TTTTT  EEEEE  PPPP        |
 |     C     A  A  S       T    E      P   P       |
 |     C     AAAA   SS     T    EEE    PPPP        |
 |     C     A  A     S    T    E      P           |
 |      CCC  A  A  SSS     T    EEEEE  P           |
 |                                                 |
 +-------------------------------------------------+
 |                                                 |
 | Materials Studio CASTEP version 2024            |
 | Ab Initio Total Energy Program                  |
 |                                                 |
 | Authors:                                        |
 | M. Segall, M. Probert, C. Pickard, P. Hasnip,   |
 | S. Clark, K. Refson, J. R. Yates,               |
 | A. Bartok-Partay, M. Payne                      |
 |                                                 |
 | Contributors:                                   |
 | P. Lindan, P. Haynes, J. White, V. Milman,      |
 | N. Govind, M. Gibson, P. Tulip, V. Cocula,      |
 | B. Montanari, D. Quigley, M. Glover,            |
 | L. Bernasconi, A. Perlov, M. Plummer,           |
 | E. McNellis, J. Meyer, J. Gale, D. Jochym       |
 | J. Aarons, B. Walker, R. Gillen, D. Jones       |
 | T. Green, I. J. Bush, C. J. Armstrong,          |
 | E. J. Higgins, E. L. Brown, M. S. McFly,        |
 | J. Wilkins, B-C. Shih, P. J. P. Byrne,          |
 | R. J. Maurer, J. C. Womack, J. Dziedzic,        |
 | L. LeBlanc, T. K. Stenczel, J. Kermode,         |
 | S. Sturniolo, B. Shi, B. Durham, M. Evans,      |
 | M. J. Smith, A. Tamerus, Z. Hawkhead,           |
 | V. Ravindran, T. Hollins, S. A. Joyce,          |
 | R. T. Strong, A. M. Reilly                      |
 |                                                 |
 | Copyright (c) 2000 - 2023                       |
 |                                                 |
 | Please cite                                     |
 |                                                 |
 |     "First principles methods using CASTEP"     |
 |                                                 |
 |         Zeitschrift fuer Kristallographie       |
 |           220(5-6) pp. 567-570 (2005)           |
 |                                                 |
 | S. J. Clark, M. D. Segall, C. J. Pickard,       |
 | P. J. Hasnip, M. J. Probert, K. Refson,         |
 | M. C. Payne                                     |
 |                                                 |
 |       in all publications arising from          |
 |              your use of CASTEP                 |
 |                                                 |
 +-------------------------------------------------+
 |                                                 |
 |              http://www.castep.org              |
 |                                                 |
 +-------------------------------------------------+
 
 
 This version was compiled for x86_64-rhel7-intel19.0 on Oct 24 2023
 Code version:    a9f326b
 Intel(R) Math Kernel Library Version 2019.0.4 
 Fundamental constants values: CODATA 2018
 
License checkout of MS_castep successful
 
 
 Atomic calculation performed for H: 1s1
 
 Converged in 41 iterations to an ae energy of -12.488 eV
 
 Identity difference: 2.63E-05
 
   ============================================================                
   | Pseudopotential Report - Date of generation 31-03-2024   |                
   ------------------------------------------------------------                
   | Element: H Ionic charge:  1.00 Level of theory: PBE      |                
   | Atomic Solver: Koelling-Harmon                           |                
   |                                                          |                
   |               Reference Electronic Structure             |                
   |         Orbital         Occupation         Energy        |                
   |            1s              1.000           -0.239        |                
   |                                                          |                
   |                 Pseudopotential Definition               |                
   |        Beta     l      e      Rc     scheme   norm       |                
   |          1      0   -0.239   0.599     qc      0         |                
   |          2      0    0.250   0.599     qc      0         |                
   |         loc     1    0.000   0.599     pn      0         |                
   |                                                          |                
   | Augmentation charge Rinner = 0.421                       |                
   | No partial core correction                               |                
   ------------------------------------------------------------                
   | "1|0.6|9|10|15|10UU(qc=8)[]"                             |                
   ------------------------------------------------------------                
   |      Author: Chris J. Pickard, Cambridge University      |                
   ============================================================                
 
 Doing a self consistent calculation for the test configuration
 
 Atomic calculation performed for H: 1s1
 
 Converged in 41 iterations to an ae energy of -12.488 eV
 
 ---------------------------------------
 AE eigenvalue nl 10 =       -0.23860176
 ---------------------------------------
 PS eigenvalue nl 10 =       -0.23857601
 ---------------------------------------
 Maximum eigenvalue error:   2.57E-05
 
 Derived cutoff energies: C=   1 M=   6 F=  10 E=  20
 
 Checking for ghost states up to   1.51185 Ha
 
 No Ghost States Identified
 
 ***************************************
 
 Atomic calculation performed for C: 1s2 2s2 2p2
 
 Converged in 54 iterations to an ae energy of -1027.632 eV
 
 Identity difference: 2.37E-04
 
   ============================================================                
   | Pseudopotential Report - Date of generation 31-03-2024   |                
   ------------------------------------------------------------                
   | Element: C Ionic charge:  4.00 Level of theory: PBE      |                
   | Atomic Solver: Koelling-Harmon                           |                
   |                                                          |                
   |               Reference Electronic Structure             |                
   |         Orbital         Occupation         Energy        |                
   |            2s              2.000           -0.505        |                
   |            2p              2.000           -0.194        |                
   |                                                          |                
   |                 Pseudopotential Definition               |                
   |        Beta     l      e      Rc     scheme   norm       |                
   |          1      0   -0.505   1.395     qc      0         |                
   |          2      0    0.250   1.395     qc      0         |                
   |          3      1   -0.194   1.395     qc      0         |                
   |          4      1    0.250   1.395     qc      0         |                
   |         loc     2    0.000   1.395     pn      0         |                
   |                                                          |                
   | Augmentation charge Rinner = 0.983                       |                
   | Partial core correction Rc = 0.983                       |                
   ------------------------------------------------------------                
   | "2|1.4|11|12|14.7|20UU:21UU(qc=7)[]"                     |                
   ------------------------------------------------------------                
   |      Author: Chris J. Pickard, Cambridge University      |                
   ============================================================                
 
 Doing a self consistent calculation for the test configuration
 
 Atomic calculation performed for C: 1s2 2s2 2p2
 
 Converged in 54 iterations to an ae energy of -1027.632 eV
 
 ---------------------------------------
 AE eigenvalue nl 10 =      -10.04653081
 AE eigenvalue nl 20 =       -0.50533429
 AE eigenvalue nl 21 =       -0.19423807
 ---------------------------------------
 PS eigenvalue nl 20 =       -0.50531853
 PS eigenvalue nl 21 =       -0.19422214
 ---------------------------------------
 Maximum eigenvalue error:   1.59E-05
 
 Derived cutoff energies: C=   6 M=  10 F=  12 E=  16
 
 Checking for ghost states up to   1.47183 Ha
 
 No Ghost States Identified
 
 ***************************************
 
 Atomic calculation performed for N: 1s2 2s2 2p3
 
 Converged in 55 iterations to an ae energy of -1481.742 eV
 
 Identity difference: 2.27E-04
 
   ============================================================                
   | Pseudopotential Report - Date of generation 31-03-2024   |                
   ------------------------------------------------------------                
   | Element: N Ionic charge:  5.00 Level of theory: PBE      |                
   | Atomic Solver: Koelling-Harmon                           |                
   |                                                          |                
   |               Reference Electronic Structure             |                
   |         Orbital         Occupation         Energy        |                
   |            2s              2.000           -0.683        |                
   |            2p              3.000           -0.261        |                
   |                                                          |                
   |                 Pseudopotential Definition               |                
   |        Beta     l      e      Rc     scheme   norm       |                
   |          1      0   -0.683   1.100     qc      0         |                
   |          2      0    0.250   1.100     qc      0         |                
   |          3      1   -0.261   1.100     qc      0         |                
   |          4      1    0.250   1.100     qc      0         |                
   |         loc     2    0.000   1.100     pn      0         |                
   |                                                          |                
   | Augmentation charge Rinner = 0.769                       |                
   | Partial core correction Rc = 0.769                       |                
   ------------------------------------------------------------                
   | "2|1.1|12|16|19|20UU:21UU(qc=7)[]"                       |                
   ------------------------------------------------------------                
   |      Author: Chris J. Pickard, Cambridge University      |                
   ============================================================                
 
 Doing a self consistent calculation for the test configuration
 
 Atomic calculation performed for N: 1s2 2s2 2p3
 
 Converged in 55 iterations to an ae energy of -1481.742 eV
 
 ---------------------------------------
 AE eigenvalue nl 10 =      -14.13820921
 AE eigenvalue nl 20 =       -0.68290611
 AE eigenvalue nl 21 =       -0.26054797
 ---------------------------------------
 PS eigenvalue nl 20 =       -0.68291221
 PS eigenvalue nl 21 =       -0.26051708
 ---------------------------------------
 Maximum eigenvalue error:   3.09E-05
 
 Derived cutoff energies: C=  10 M=  15 F=  18 E=  23
 
 Checking for ghost states up to   1.48495 Ha
 
 No Ghost States Identified
 
 ***************************************
 
 Atomic calculation performed for O: 1s2 2s2 2p4
 
 Converged in 61 iterations to an ae energy of -2040.902 eV
 
 Identity difference: 4.10E-04
 
   ============================================================                
   | Pseudopotential Report - Date of generation 31-03-2024   |                
   ------------------------------------------------------------                
   | Element: O Ionic charge:  6.00 Level of theory: PBE      |                
   | Atomic Solver: Koelling-Harmon                           |                
   |                                                          |                
   |               Reference Electronic Structure             |                
   |         Orbital         Occupation         Energy        |                
   |            2s              2.000           -0.881        |                
   |            2p              4.000           -0.332        |                
   |                                                          |                
   |                 Pseudopotential Definition               |                
   |        Beta     l      e      Rc     scheme   norm       |                
   |          1      0   -0.881   1.100     qc      0         |                
   |          2      0    0.250   1.100     qc      0         |                
   |          3      1   -0.332   1.100     qc      0         |                
   |          4      1    0.250   1.100     qc      0         |                
   |         loc     2    0.000   1.100     pn      0         |                
   |                                                          |                
   | Augmentation charge Rinner = 0.769                       |                
   | Partial core correction Rc = 0.769                       |                
   ------------------------------------------------------------                
   | "2|1.1|14|18|21|20UU:21UU(qc=7)[]"                       |                
   ------------------------------------------------------------                
   |      Author: Chris J. Pickard, Cambridge University      |                
   ============================================================                
 
 Doing a self consistent calculation for the test configuration
 
 Atomic calculation performed for O: 1s2 2s2 2p4
 
 Converged in 61 iterations to an ae energy of -2040.902 eV
 
 ---------------------------------------
 AE eigenvalue nl 10 =      -18.91475256
 AE eigenvalue nl 20 =       -0.88057101
 AE eigenvalue nl 21 =       -0.33186952
 ---------------------------------------
 PS eigenvalue nl 20 =       -0.88059206
 PS eigenvalue nl 21 =       -0.33182157
 ---------------------------------------
 Maximum eigenvalue error:   4.80E-05
 
 Derived cutoff energies: C=  14 M=  17 F=  20 E=  22
 
 Checking for ghost states up to   1.49452 Ha
 
 No Ghost States Identified
 
 ***************************************
 
 Atomic calculation performed for Si: 1s2 2s2 2p6 3s2 3p2
 
 Converged in 54 iterations to an ae energy of -7886.857 eV
 
 Identity difference: 1.35E-04
 
   ============================================================                
   | Pseudopotential Report - Date of generation 31-03-2024   |                
   ------------------------------------------------------------                
   | Element: Si Ionic charge:  4.00 Level of theory: PBE     |                
   | Atomic Solver: Koelling-Harmon                           |                
   |                                                          |                
   |               Reference Electronic Structure             |                
   |         Orbital         Occupation         Energy        |                
   |            3s              2.000           -0.397        |                
   |            3p              2.000           -0.150        |                
   |                                                          |                
   |                 Pseudopotential Definition               |                
   |        Beta     l      e      Rc     scheme   norm       |                
   |          1      0   -0.397   1.797     qc      0         |                
   |          2      0    0.250   1.797     qc      0         |                
   |          3      1   -0.150   1.797     qc      0         |                
   |          4      1    0.250   1.797     qc      0         |                
   |          5      2    0.000   1.797     qc      0         |                
   |          6      2    0.250   1.797     qc      0         |                
   |         loc     3    0.000   1.797     pn      0         |                
   |                                                          |                
   | Augmentation charge Rinner = 1.255                       |                
   | Partial core correction Rc = 1.255                       |                
   ------------------------------------------------------------                
   | "3|1.8|3.6|5|7|30UU:31UU:32UU[]"                         |                
   ------------------------------------------------------------                
   |      Author: Chris J. Pickard, Cambridge University      |                
   ============================================================                
 
 Doing a self consistent calculation for the test configuration
 
 Atomic calculation performed for Si: 1s2 2s2 2p6 3s2 3p2
 
 Converged in 54 iterations to an ae energy of -7886.857 eV
 
 ---------------------------------------
 AE eigenvalue nl 10 =      -65.63192903
 AE eigenvalue nl 20 =       -5.12654326
 AE eigenvalue nl 21 =       -3.51173659
 AE eigenvalue nl 30 =       -0.39736430
 AE eigenvalue nl 31 =       -0.14998156
 ---------------------------------------
 PS eigenvalue nl 30 =       -0.39734922
 PS eigenvalue nl 31 =       -0.14996719
 ---------------------------------------
 Maximum eigenvalue error:   1.51E-05
 
 Derived cutoff energies: C=   1 M=   3 F=   6 E=   6
 
 Checking for ghost states up to   1.41161 Ha
 
 No Ghost States Identified
 
 ***************************************
 
 Pseudo atomic calculation performed for H 1s1
 
 Converged in 13 iterations to a total energy of -12.4790 eV
 
 Pseudo atomic calculation performed for C 2s2 2p2
 
 Converged in 17 iterations to a total energy of -148.5208 eV
 
 Pseudo atomic calculation performed for N 2s2 2p3
 
 Converged in 21 iterations to a total energy of -268.1820 eV
 
 Pseudo atomic calculation performed for O 2s2 2p4
 
 Converged in 23 iterations to a total energy of -432.6536 eV
 
 Pseudo atomic calculation performed for Si 3s2 3p2
 
 Converged in 11 iterations to a total energy of -165.0683 eV
 Calculation parallelised over 48 processes.
 Data is distributed by G-vector(48-way)

 ************************************ Title ************************************
 CASTEP calculation from BIOVIA Materials Studio 2024

 ***************************** General Parameters ******************************
  
 output verbosity                               : normal  (1)
 write checkpoint data to                       : Conf_0031.check
 type of calculation                            : geometry optimization
 stress calculation                             : off
 density difference calculation                 : off
 electron localisation func (ELF) calculation   : off
 Hirshfeld analysis                             : on
 polarisation (Berry phase) analysis            : off
 molecular orbital projected DOS                : off
 deltaSCF calculation                           : off
 unlimited duration calculation
 timing information                             : on
 memory usage estimate                          : on
 write extra output files                       : on
 write final potential to formatted file        : off
 write final density to formatted file          : off
 write BibTeX reference list                    : on
 write OTFG pseudopotential files               : on
 write electrostatic potential file             : on
 write bands file                               : on
 checkpoint writing                             : both castep_bin and check files
  
 output         length unit                     : A
 output           mass unit                     : amu
 output           time unit                     : ps
 output         charge unit                     : e
 output           spin unit                     : hbar/2
 output         energy unit                     : eV
 output          force unit                     : eV/A
 output       velocity unit                     : A/ps
 output       pressure unit                     : GPa
 output     inv_length unit                     : 1/A
 output      frequency unit                     : cm-1
 output force constant unit                     : eV/A**2
 output         volume unit                     : A**3
 output   IR intensity unit                     : (D/A)**2/amu
 output         dipole unit                     : D
 output         efield unit                     : eV/A/e
 output        entropy unit                     : J/mol/K
 output    efield chi2 unit                     : pm/V
  
 wavefunctions paging                           : none
 random number generator seed                   :   13638017
 data distribution                              : optimal for this architecture
 optimization strategy                          : balance speed and memory

 *********************** Exchange-Correlation Parameters ***********************
  
 using functional                               : Perdew Burke Ernzerhof
 relativistic treatment                         : Koelling-Harmon
 DFT+D: Semi-empirical dispersion correction    : on
 SEDC with                                      : G06 correction scheme

 ************************* Pseudopotential Parameters **************************
  
 pseudopotential representation                 : reciprocal space
 <beta|phi> representation                      : reciprocal space
 spin-orbit coupling                            : off

 **************************** Basis Set Parameters *****************************
  
 plane wave basis set cut-off                   :   600.0000   eV
 size of standard grid                          :     1.5000
 size of   fine   gmax                          :    18.8237   1/A
 largest prime factor in FFT                    :          5
 finite basis set correction                    : none

 **************************** Electronic Parameters ****************************
  
 number of  electrons                           :  74.00    
 net charge of system                           : +1.000    
 treating system as non-spin-polarized
 number of bands                                :         37

 ********************* Electronic Minimization Parameters **********************
  
 Method: Treating system as non-metallic,
         and number of  SD  steps               :          1
         and number of  CG  steps               :          4
  
 total energy / atom convergence tol.           : 0.2000E-05   eV
 eigen-energy convergence tolerance             : 0.1000E-05   eV
 max force / atom convergence tol.              : ignored
 convergence tolerance window                   :          3   cycles
 max. number of SCF cycles                      :        100
 periodic dipole correction                     : NONE

 ************************** Density Mixing Parameters **************************
  
 density-mixing scheme                          : Pulay
 max. length of mixing history                  :         20
 charge density mixing amplitude                : 0.5000    
 cut-off energy for mixing                      :  600.0       eV
 charge density mixing g-vector                 :  1.500       1/A

 *********************** Population Analysis Parameters ************************
  
 Population analysis with cutoff                :  3.000       A
 Population analysis output                     : summary and pdos components

 ********************** Geometry Optimization Parameters ***********************
  
 optimization method                            : LBFGS
 max. no. of LBFGS updates                      : unbounded
 preconditioned LBFGS is activated
 preconditioner type                            : EXP
     stabilization constant                     :     0.1000
     parameter A                                :     3.0000
     nearest neighbor distance                  : automatic
     cut-off distance                           : automatic
     parameter mu                               : automatic
 variable cell method                           : fixed basis quality
 max. number of steps                           :        300
 estimated bulk modulus                         :  500.0       GPa
 estimated <frequency>                          :  1668.       cm-1
 geom line minimiser                            : on
 with line minimiser tolerance                  :     0.4000
 total energy convergence tolerance             : 0.2000E-04   eV/atom
        max ionic |force| tolerance             : 0.5000E-01   eV/A
 max ionic |displacement| tolerance             : 0.2000E-02   A
   max |stress component| tolerance             : 0.1000       GPa
 convergence tolerance window                   :          2   steps
 backup results every                           :          5   steps
 write geom trajectory file                     : on

 *******************************************************************************
  
 
                           -------------------------------
                                      Unit Cell
                           -------------------------------
        Real Lattice(A)                      Reciprocal Lattice(1/A)
    13.4840002    -0.0000006    -0.0000006        0.465973392   0.000000000   0.000000000
     0.0000000    20.4006996    -0.0000009        0.000000013   0.307988717   0.000000000
     0.0000000     0.0000000    45.0000000        0.000000006   0.000000006   0.139626340
 
                       Lattice parameters(A)       Cell Angles
                    a =     13.484000          alpha =   90.000003
                    b =     20.400700          beta  =   90.000003
                    c =     45.000000          gamma =   90.000003
 
                       Current cell volume =         12378.736702       A**3
                                   density =             0.015698   AMU/A**3
                                           =             0.026068     g/cm^3
 
                           -------------------------------
                                     Cell Contents
                           -------------------------------
                         Total number of ions in cell =   32
                      Total number of species in cell =    5
                        Max number of any one species =   20
 
            xxxxxxxxxxxxxxxxxxxxxxxxxxxxxxxxxxxxxxxxxxxxxxxxxxxxxxxxxxxx
            x  Element    Atom        Fractional coordinates of atoms  x
            x            Number           u          v          w      x
            x----------------------------------------------------------x
            x  H            1         0.433823   0.380798   0.545774   x 
            x  H            2         0.507639   0.432546   0.522225   x 
            x  H            3         0.405973   0.476138   0.580592   x 
            x  H            4         0.477415   0.527693   0.557048   x 
            x  H            5         0.311777   0.360749   0.506275   x 
            x  H            6         0.250925   0.428277   0.488905   x 
            x  H            7         0.365463   0.376140   0.454298   x 
            x  H            8         0.467963   0.385738   0.478244   x 
            x  H            9         0.449070   0.510195   0.473835   x 
            x  H           10         0.347683   0.497939   0.449458   x 
            x  H           11         0.666691   0.440050   0.421405   x 
            x  H           12         0.565177   0.550543   0.393052   x 
            x  H           13         0.499412   0.421409   0.379972   x 
            x  H           14         0.294819   0.456811   0.537174   x 
            x  H           15         0.362549   0.500762   0.514253   x 
            x  H           16         0.556262   0.406134   0.589901   x 
            x  H           17         0.627279   0.457315   0.566251   x 
            x  H           18         0.653799   0.487612   0.619482   x 
            x  H           19         0.524573   0.501776   0.624110   x 
            x  H           20         0.595617   0.553383   0.600269   x 
            x  C            1         0.446748   0.431744   0.538566   x 
            x  C            2         0.468783   0.476710   0.564859   x 
            x  C            3         0.323290   0.410219   0.496984   x 
            x  C            4         0.397694   0.408930   0.471347   x 
            x  C            5         0.418054   0.476152   0.457210   x 
            x  C            6         0.563317   0.456914   0.581606   x 
            x  C            7         0.585502   0.502386   0.607784   x 
            x  N            1         0.351194   0.455161   0.522382   x 
            x  O            1         0.527416   0.545430   0.410667   x 
            x  O            2         0.464090   0.426025   0.398068   x 
            x  O            3         0.613558   0.442549   0.435169   x 
            x  Si           1         0.507447   0.472758   0.424397   x 
            xxxxxxxxxxxxxxxxxxxxxxxxxxxxxxxxxxxxxxxxxxxxxxxxxxxxxxxxxxxx
 
 
                         No user defined ionic velocities
 
                           -------------------------------
                                   Details of Species
                           -------------------------------
 
                               Mass of species in AMU
                                    H    1.0080000
                                    C   12.0109997
                                    N   14.0070000
                                    O   15.9989996
                                    Si   28.0849991
 
                          Electric Quadrupole Moment (Barn)
                                    H    0.0028600 Isotope  2
                                    C    0.0332700 Isotope 11
                                    N    0.0204400 Isotope 14
                                    O   -0.0255800 Isotope 17
                                    Si    1.0000000 No Isotope Defined
 
                          Files used for pseudopotentials:
                                    H 1|0.6|9|10|15|10UU(qc=8)[]
                                    C 2|1.4|11|12|14.7|20UU:21UU(qc=7)[]
                                    N 2|1.1|12|16|19|20UU:21UU(qc=7)[]
                                    O 2|1.1|14|18|21|20UU:21UU(qc=7)[]
                                    Si 3|1.8|3.6|5|7|30UU:31UU:32UU[]
 
                           -------------------------------
                              k-Points For BZ Sampling
                           -------------------------------
                       MP grid size for SCF calculation is  1  1  1
                            with an offset of   0.000  0.000  0.000
                       Number of kpoints used =             1
 
                           -------------------------------
                               Symmetry and Constraints
                           -------------------------------
 
                      Maximum deviation from symmetry =  0.00000         ANG
 
                      Number of symmetry operations   =           1
                      Number of nonlinear constraints =           3
         There are no ionic constraints specified or generated for this cell
                      Point group of crystal =     1: C1, 1, 1
                      Space group of crystal =     1: P1, P 1
 
             Set iprint > 1 for details on symmetry rotations/translations
 
                         Centre of mass is NOT constrained
 
                         Number of cell constraints= 6
                         Cell constraints are:  0 0 0 0 0 0
 
                         External pressure/stress (GPa)
                          0.00000   0.00000   0.00000
                                    0.00000   0.00000
                                              0.00000
 
                                --------------------
                                  DFT-D parameters
                                --------------------
 
                          Dispersion-correction scheme : G06       
                        Parameter s6 :   0.750000 (default)
                        Parameter d  :  20.000000 (default)
 
        xxxxxxxxxxxxxxxxxxxxxxxxxxxxxxxxxxxxxxxxxxxxxxxxxxxxxxxxxxxxxxxxxxxx
        x              Atomic DFT-D parameters                             x
        x  Species      C6            R0                                   x
        x               eV A^6        Ang                                  x
        x------------------------------------------------------------------x
        x  H             1.4510       1.0010   (default)                   x
        x  C            18.1375       1.4520   (default)                   x
        x  N            12.7481       1.3970   (default)                   x
        x  O             7.2550       1.3420   (default)                   x
        x  Si           95.6622       1.7160   (default)                   x
        xxxxxxxxxxxxxxxxxxxxxxxxxxxxxxxxxxxxxxxxxxxxxxxxxxxxxxxxxxxxxxxxxxxx
 
 
+---------------- MEMORY AND SCRATCH DISK ESTIMATES PER PROCESS --------------+
|                                                     Memory          Disk    |
| Baseline code, static data and system overhead     6530.0 MB         0.0 MB |
| BLAS internal memory storage                          0.0 MB         0.0 MB |
| Model and support data                              540.6 MB         0.0 MB |
| Electronic energy minimisation requirements          31.8 MB         0.0 MB |
| Force calculation requirements                        6.8 MB         0.0 MB |
|                                               ----------------------------- |
| Approx. total storage required per process         7102.3 MB         0.0 MB |
|                                                                             |
| Requirements will fluctuate during execution and may exceed these estimates |
+-----------------------------------------------------------------------------+
Calculating approximate eigenstates for fixed initial Hamiltonian
Cut-off for approx. calculation is  119.774 eV
Improving approx. states at cut-off of  300.000 eV
Resetting cut-off to  600.000 eV
Calculating total energy with cut-off of  600.000 eV.
------------------------------------------------------------------------ <-- SCF
SCF loop      Energy                           Energy gain       Timer   <-- SCF
                                               per atom          (sec)   <-- SCF
------------------------------------------------------------------------ <-- SCF
Initial  -2.94572014E+003                                         30.54  <-- SCF
      1  -3.20328810E+003                    8.04899857E+000      31.38  <-- SCF
      2  -3.20372843E+003                    1.37604465E-002      32.26  <-- SCF
      3  -3.19274213E+003                   -3.43321997E-001      33.29  <-- SCF
      4  -3.19154941E+003                   -3.72724542E-002      34.47  <-- SCF
      5  -3.19093809E+003                   -1.91035566E-002      35.53  <-- SCF
      6  -3.19084887E+003                   -2.78817748E-003      36.83  <-- SCF
      7  -3.19078036E+003                   -2.14104035E-003      37.86  <-- SCF
      8  -3.19076937E+003                   -3.43474173E-004      38.99  <-- SCF
      9  -3.19075558E+003                   -4.31015776E-004      40.01  <-- SCF
     10  -3.19073773E+003                   -5.57650274E-004      41.07  <-- SCF
     11  -3.19070675E+003                   -9.68256382E-004      42.11  <-- SCF
     12  -3.19065675E+003                   -1.56244317E-003      43.14  <-- SCF
     13  -3.19059402E+003                   -1.96028623E-003      44.17  <-- SCF
     14  -3.19052338E+003                   -2.20749504E-003      45.16  <-- SCF
     15  -3.19046785E+003                   -1.73533085E-003      46.19  <-- SCF
     16  -3.19042711E+003                   -1.27312272E-003      47.18  <-- SCF
     17  -3.19039427E+003                   -1.02631749E-003      48.18  <-- SCF
     18  -3.19037481E+003                   -6.08173867E-004      49.17  <-- SCF
     19  -3.19035214E+003                   -7.08312344E-004      50.20  <-- SCF
     20  -3.19032417E+003                   -8.73960050E-004      51.19  <-- SCF
     21  -3.19029546E+003                   -8.97312209E-004      52.14  <-- SCF
     22  -3.19028143E+003                   -4.38260470E-004      53.06  <-- SCF
     23  -3.19027593E+003                   -1.71973171E-004      54.05  <-- SCF
     24  -3.19027999E+003                    1.26859137E-004      54.95  <-- SCF
     25  -3.19028407E+003                    1.27642851E-004      55.78  <-- SCF
     26  -3.19028998E+003                    1.84678057E-004      56.66  <-- SCF
     27  -3.19029565E+003                    1.77038145E-004      57.48  <-- SCF
     28  -3.19029815E+003                    7.81257024E-005      58.27  <-- SCF
     29  -3.19030231E+003                    1.29947276E-004      59.05  <-- SCF
     30  -3.19030416E+003                    5.79558730E-005      59.84  <-- SCF
     31  -3.19030709E+003                    9.13578854E-005      60.63  <-- SCF
     32  -3.19030814E+003                    3.29801557E-005      61.42  <-- SCF
     33  -3.19030925E+003                    3.44947307E-005      62.21  <-- SCF
     34  -3.19030988E+003                    1.98422644E-005      63.00  <-- SCF
     35  -3.19031074E+003                    2.67068843E-005      63.79  <-- SCF
     36  -3.19031121E+003                    1.48543346E-005      64.59  <-- SCF
     37  -3.19031164E+003                    1.34305419E-005      65.43  <-- SCF
     38  -3.19031203E+003                    1.21363817E-005      66.23  <-- SCF
     39  -3.19031232E+003                    9.19226664E-006      67.02  <-- SCF
     40  -3.19031258E+003                    8.12814102E-006      67.80  <-- SCF
     41  -3.19031277E+003                    5.81483841E-006      68.60  <-- SCF
     42  -3.19031294E+003                    5.36229110E-006      69.39  <-- SCF
     43  -3.19031306E+003                    3.59214806E-006      70.18  <-- SCF
     44  -3.19031317E+003                    3.61116751E-006      70.97  <-- SCF
     45  -3.19031325E+003                    2.46779983E-006      71.76  <-- SCF
     46  -3.19031329E+003                    1.11338986E-006      72.55  <-- SCF
     47  -3.19031332E+003                    1.15257460E-006      73.34  <-- SCF
     48  -3.19031334E+003                    5.80394820E-007      74.13  <-- SCF
------------------------------------------------------------------------ <-- SCF
 
Final energy =  -3190.313340981     eV
(energy not corrected for finite basis set)
 
(SEDC) Total Energy Correction : -0.771307E+00 eV

Dispersion corrected final energy* =  -3191.084647498     eV

Writing analysis data to Conf_0031.castep_bin

Writing model to Conf_0031.check

WARNING - nonlinear constraints cannot be used with LBFGS algorithm
        - consider setting geom_method=DELOCALIZED
 
        => Turning nonlinear constraints OFF
 
+---------------- MEMORY AND SCRATCH DISK ESTIMATES PER PROCESS --------------+
|                                                     Memory          Disk    |
| Model and support data                              550.1 MB         0.0 MB |
| Electronic energy minimisation requirements          31.8 MB         0.0 MB |
| Geometry minimisation requirements                   34.8 MB         0.0 MB |
|                                               ----------------------------- |
| Approx. total storage required per process          616.7 MB         0.0 MB |
|                                                                             |
| Requirements will fluctuate during execution and may exceed these estimates |
+-----------------------------------------------------------------------------+
 
 
 ************************************** Forces **************************************
 *                                                                                  *
 *                           Cartesian components (eV/A)                            *
 * -------------------------------------------------------------------------------- *
 *                         x                    y                    z              *
 *                                                                                  *
 * H               1     -0.10450              0.14585             -0.17684         *
 * H               2     -0.24948              0.03420             -0.00234         *
 * H               3     -0.03539              0.00726             -0.02641         *
 * H               4     -0.03345             -0.02281             -0.04099         *
 * H               5      0.10192              0.24079              0.08062         *
 * H               6      0.13364             -0.04139              0.02258         *
 * H               7      0.06255              0.05275              0.22246         *
 * H               8     -0.12862              0.03500             -0.00125         *
 * H               9      0.15374              0.09555             -0.08130         *
 * H              10      0.09865              0.04276             -0.06832         *
 * H              11      0.77088             -0.07202             -0.61106         *
 * H              12      0.44546              0.17388             -0.87263         *
 * H              13      0.41631             -0.15545             -0.87389         *
 * H              14     -0.47026              0.13440              0.50544         *
 * H              15      0.14502              0.70824             -0.17990         *
 * H              16     -0.02834              0.04634             -0.12059         *
 * H              17     -0.14154             -0.00061             -0.02378         *
 * H              18     -0.14508             -0.02970             -0.11431         *
 * H              19      0.05775             -0.00973             -0.07186         *
 * H              20     -0.00674             -0.02997              0.01732         *
 * C               1     -0.23547              0.52085              0.17956         *
 * C               2      0.01891              0.00911              0.01342         *
 * C               3     -0.55290             -0.12986             -0.44820         *
 * C               4      0.16868             -0.08842             -0.10156         *
 * C               5      0.09882             -0.02676             -0.23395         *
 * C               6      0.21129             -0.18331              0.02632         *
 * C               7     -0.03005              0.12877              0.09857         *
 * N               1      1.45495             -1.70909             -0.17444         *
 * O               1     -0.80611              0.71028              1.14544         *
 * O               2     -1.29094             -0.39649              0.88137         *
 * O               3     -0.36043             -0.30340              1.58486         *
 * Si              1      0.28073              0.11300             -0.55432         *
 *                                                                                  *
 ************************************************************************************
 EXP precond LBFGS => estimated nearest neighbor distance :  1.629       A
 EXP precond LBFGS => estimated cutoff distance :  3.257       A
 doing test perturbation to get energy scale for EXP preconditioner
 
                           -------------------------------
                                     Cell Contents
                           -------------------------------
 
            xxxxxxxxxxxxxxxxxxxxxxxxxxxxxxxxxxxxxxxxxxxxxxxxxxxxxxxxxxxxxxxxx
            x  Element         Atom        Fractional coordinates of atoms  x
            x                 Number           u          v          w      x
            x---------------------------------------------------------------x
            x  H                 1         0.434867   0.381531   0.546059   x
            x  H                 2         0.508774   0.433169   0.522530   x
            x  H                 3         0.406974   0.476634   0.580842   x
            x  H                 4         0.478517   0.528005   0.557322   x
            x  H                 5         0.312600   0.361511   0.506592   x
            x  H                 6         0.251610   0.428911   0.489233   x
            x  H                 7         0.366393   0.376881   0.454645   x
            x  H                 8         0.469053   0.386463   0.478579   x
            x  H                 9         0.450135   0.510573   0.474173   x
            x  H                10         0.348579   0.498361   0.449807   x
            x  H                11         0.667898   0.440654   0.421762   x
            x  H                12         0.566358   0.550767   0.393413   x
            x  H                13         0.500539   0.422060   0.380334   x
            x  H                14         0.295605   0.457367   0.537466   x
            x  H                15         0.363473   0.501174   0.514564   x
            x  H                16         0.557437   0.406819   0.590141   x
            x  H                17         0.628484   0.457870   0.566516   x
            x  H                18         0.655007   0.488070   0.619687   x
            x  H                19         0.525723   0.502184   0.624310   x
            x  H                20         0.596813   0.553595   0.600497   x
            x  C                 1         0.447810   0.432369   0.538858   x
            x  C                 2         0.469874   0.477204   0.565126   x
            x  C                 3         0.324137   0.410895   0.497307   x
            x  C                 4         0.398681   0.409610   0.471686   x
            x  C                 5         0.419074   0.476647   0.457556   x
            x  C                 6         0.564496   0.457469   0.581855   x
            x  C                 7         0.586694   0.502792   0.608004   x
            x  N                 1         0.352097   0.455722   0.522687   x
            x  O                 1         0.528569   0.545674   0.411026   x
            x  O                 2         0.465175   0.426665   0.398429   x
            x  O                 3         0.614760   0.443145   0.435522   x
            x  Si                1         0.508582   0.473265   0.424754   x
            xxxxxxxxxxxxxxxxxxxxxxxxxxxxxxxxxxxxxxxxxxxxxxxxxxxxxxxxxxxxxxxxx
 
 
------------------------------------------------------------------------ <-- SCF
SCF loop      Energy                           Energy gain       Timer   <-- SCF
                                               per atom          (sec)   <-- SCF
------------------------------------------------------------------------ <-- SCF
Initial  -3.19139088E+003                                         76.13  <-- SCF
      1  -3.19028621E+003                   -3.45209824E-002      76.93  <-- SCF
      2  -3.19030962E+003                    7.31609503E-004      78.10  <-- SCF
      3  -3.19028501E+003                   -7.69142236E-004      79.10  <-- SCF
      4  -3.19030045E+003                    4.82625363E-004      80.14  <-- SCF
      5  -3.19030061E+003                    5.06003268E-006      81.03  <-- SCF
      6  -3.19030073E+003                    3.83499202E-006      81.79  <-- SCF
      7  -3.19030079E+003                    1.75932969E-006      82.55  <-- SCF
      8  -3.19030083E+003                    1.22005860E-006      83.32  <-- SCF
      9  -3.19030087E+003                    1.13254210E-006      84.08  <-- SCF
     10  -3.19030090E+003                    9.34463152E-007      84.85  <-- SCF
     11  -3.19030093E+003                    9.19070192E-007      85.61  <-- SCF
------------------------------------------------------------------------ <-- SCF
 
Final energy =  -3190.300925871     eV
(energy not corrected for finite basis set)
 
(SEDC) Total Energy Correction : -0.771555E+00 eV

Dispersion corrected final energy* =  -3191.072481152     eV
 
 ************************************** Forces **************************************
 *                                                                                  *
 *                           Cartesian components (eV/A)                            *
 * -------------------------------------------------------------------------------- *
 *                         x                    y                    z              *
 *                                                                                  *
 * H               1     -0.11355              0.06083             -0.15859         *
 * H               2     -0.26582              0.03661             -0.01598         *
 * H               3     -0.00832              0.00277             -0.01365         *
 * H               4     -0.03301              0.10091             -0.05499         *
 * H               5      0.09258              0.18937              0.09604         *
 * H               6      0.17516             -0.05695              0.03187         *
 * H               7      0.05524              0.04122              0.21461         *
 * H               8     -0.14822              0.02272              0.00393         *
 * H               9      0.14826              0.13640             -0.06556         *
 * H              10      0.12698              0.04401             -0.05374         *
 * H              11      0.78321             -0.05712             -0.61597         *
 * H              12      0.44265              0.17984             -0.85055         *
 * H              13      0.39919             -0.16650             -0.87557         *
 * H              14     -0.42691              0.13432              0.48939         *
 * H              15      0.15386              0.82473             -0.22293         *
 * H              16     -0.03217             -0.03902             -0.10545         *
 * H              17     -0.14259             -0.00655             -0.03477         *
 * H              18     -0.11070             -0.01927             -0.10516         *
 * H              19      0.04765             -0.01342             -0.05361         *
 * H              20     -0.00478              0.08604             -0.00509         *
 * C               1     -0.23961              0.51408              0.13671         *
 * C               2      0.00291             -0.03357              0.07499         *
 * C               3     -0.56119             -0.11806             -0.48771         *
 * C               4      0.16029             -0.15845             -0.06891         *
 * C               5      0.07346              0.00905             -0.28396         *
 * C               6      0.19431             -0.18561             -0.02101         *
 * C               7     -0.04671              0.08357              0.16176         *
 * N               1      1.46233             -1.71987             -0.16631         *
 * O               1     -0.77425              0.86497              1.08143         *
 * O               2     -1.28675             -0.45086              0.84051         *
 * O               3     -0.38067             -0.32042              1.59457         *
 * Si              1      0.25719              0.01424             -0.46629         *
 *                                                                                  *
 ************************************************************************************
 EXP precond LBFGS => estimated parameter mu :  1.727       eV/A**2
 LBFGS: finished iteration     0 with enthalpy= -3.19108465E+003 eV
  
 +-----------+-----------------+-----------------+------------+-----+ <-- LBFGS
 | Parameter |      value      |    tolerance    |    units   | OK? | <-- LBFGS
 +-----------+-----------------+-----------------+------------+-----+ <-- LBFGS
 |  dE/ion   |   0.000000E+000 |   2.000000E-005 |         eV | No  | <-- LBFGS
 |  |F|max   |   2.263630E+000 |   5.000000E-002 |       eV/A | No  | <-- LBFGS
 |  |dR|max  |   5.051764E-015 |   2.000000E-003 |          A | No  | <-- LBFGS
 +-----------+-----------------+-----------------+------------+-----+ <-- LBFGS
  

================================================================================
 Starting LBFGS iteration          1 ...
================================================================================
  
 +------------+-------------+-------------+-----------------+ <-- min LBFGS
 |    Step    |   lambda    |   F.delta'  |    enthalpy     | <-- min LBFGS
 +------------+-------------+-------------+-----------------+ <-- min LBFGS
 |  previous  |    0.000000 |    1.732173 |    -3191.084647 | <-- min LBFGS
 +------------+-------------+-------------+-----------------+ <-- min LBFGS
  

--------------------------------------------------------------------------------
 LBFGS: starting iteration         1 with trial guess (lambda=  0.782240)
--------------------------------------------------------------------------------
 
                           -------------------------------
                                     Cell Contents
                           -------------------------------
 
            xxxxxxxxxxxxxxxxxxxxxxxxxxxxxxxxxxxxxxxxxxxxxxxxxxxxxxxxxxxxxxxxx
            x  Element         Atom        Fractional coordinates of atoms  x
            x                 Number           u          v          w      x
            x---------------------------------------------------------------x
            x  H                 1         0.434382   0.381577   0.544796   x
            x  H                 2         0.507578   0.432937   0.521532   x
            x  H                 3         0.406616   0.476098   0.579713   x
            x  H                 4         0.478090   0.527566   0.556139   x
            x  H                 5         0.314671   0.360830   0.505679   x
            x  H                 6         0.254228   0.427300   0.488232   x
            x  H                 7         0.367965   0.376028   0.454316   x
            x  H                 8         0.469522   0.385607   0.477902   x
            x  H                 9         0.452293   0.510759   0.473408   x
            x  H                10         0.350355   0.498340   0.449049   x
            x  H                11         0.671007   0.438156   0.424970   x
            x  H                12         0.560385   0.557246   0.394204   x
            x  H                13         0.489747   0.418196   0.380393   x
            x  H                14         0.296949   0.455549   0.537246   x
            x  H                15         0.367363   0.501244   0.513417   x
            x  H                16         0.556386   0.406156   0.588697   x
            x  H                17         0.626759   0.457157   0.565216   x
            x  H                18         0.652630   0.487518   0.618238   x
            x  H                19         0.524637   0.501760   0.622954   x
            x  H                20         0.595306   0.553286   0.599267   x
            x  C                 1         0.447400   0.432710   0.537961   x
            x  C                 2         0.469566   0.476712   0.564009   x
            x  C                 3         0.324796   0.409230   0.495989   x
            x  C                 4         0.400459   0.408529   0.470880   x
            x  C                 5         0.420506   0.476343   0.456783   x
            x  C                 6         0.563991   0.456507   0.580602   x
            x  C                 7         0.585139   0.502554   0.606784   x
            x  N                 1         0.358103   0.451548   0.521686   x
            x  O                 1         0.518164   0.552749   0.414149   x
            x  O                 2         0.448830   0.422686   0.400610   x
            x  O                 3         0.612718   0.440390   0.440961   x
            x  Si                1         0.504462   0.473720   0.425781   x
            xxxxxxxxxxxxxxxxxxxxxxxxxxxxxxxxxxxxxxxxxxxxxxxxxxxxxxxxxxxxxxxxx
 
 
------------------------------------------------------------------------ <-- SCF
SCF loop      Energy                           Energy gain       Timer   <-- SCF
                                               per atom          (sec)   <-- SCF
------------------------------------------------------------------------ <-- SCF
Initial  -3.21693844E+003                                         86.95  <-- SCF
      1  -3.18503794E+003                   -9.96890553E-001      87.79  <-- SCF
      2  -3.19019822E+003                    1.61258788E-001      89.06  <-- SCF
      3  -3.18942204E+003                   -2.42557169E-002      90.18  <-- SCF
      4  -3.18957107E+003                    4.65712369E-003      91.20  <-- SCF
      5  -3.18960089E+003                    9.32007968E-004      92.40  <-- SCF
      6  -3.18960503E+003                    1.29173559E-004      93.44  <-- SCF
      7  -3.18960556E+003                    1.65396446E-005      94.31  <-- SCF
      8  -3.18960588E+003                    1.02440163E-005      95.24  <-- SCF
      9  -3.18960594E+003                    1.81497307E-006      96.06  <-- SCF
     10  -3.18960594E+003                    1.67662176E-008      96.86  <-- SCF
------------------------------------------------------------------------ <-- SCF
 
Final energy =  -3189.605943408     eV
(energy not corrected for finite basis set)
 
(SEDC) Total Energy Correction : -0.779465E+00 eV

Dispersion corrected final energy* =  -3190.385408187     eV
 
 ************************************** Forces **************************************
 *                                                                                  *
 *                           Cartesian components (eV/A)                            *
 * -------------------------------------------------------------------------------- *
 *                         x                    y                    z              *
 *                                                                                  *
 * H               1      0.19796              0.00322              0.07808         *
 * H               2      0.15608             -0.00976              0.08842         *
 * H               3     -0.01968              0.03438             -0.03201         *
 * H               4     -0.01638              0.06603             -0.01953         *
 * H               5     -0.05933             -0.35467              0.00571         *
 * H               6     -0.55039              0.38556             -0.06660         *
 * H               7     -0.01507             -0.21667             -0.33821         *
 * H               8      0.29249             -0.11256              0.09999         *
 * H               9     -0.01544             -0.08945             -0.15971         *
 * H              10      0.01586              0.02535             -0.01185         *
 * H              11     -2.41162              0.08469              2.31864         *
 * H              12     -1.83567             -0.17376              2.82171         *
 * H              13     -1.86953              0.21002              2.82028         *
 * H              14      1.38546             -0.13128             -1.10798         *
 * H              15     -0.16480             -1.63812              0.54288         *
 * H              16     -0.01979             -0.22615              0.05915         *
 * H              17      0.16557              0.00752             -0.19435         *
 * H              18      0.19141             -0.07198              0.14503         *
 * H              19     -0.15227             -0.01672              0.10696         *
 * H              20      0.01162              0.09605             -0.05492         *
 * C               1      0.81374             -0.98871             -0.06440         *
 * C               2     -0.08651              0.22623              0.19300         *
 * C               3      0.99049             -0.20364              0.16407         *
 * C               4     -0.24000              0.36011             -0.07346         *
 * C               5     -1.10690              0.04611              1.61061         *
 * C               6     -0.15166              0.30429              0.15319         *
 * C               7     -0.04275             -0.09985             -0.28070         *
 * N               1     -2.52183              2.74162              0.32386         *
 * O               1      1.78351             -1.26364             -2.46592         *
 * O               2      2.61635              0.71025             -1.97384         *
 * O               3      0.88309              0.63350             -3.18220         *
 * Si              1      1.77604             -0.33798             -1.50591         *
 *                                                                                  *
 ************************************************************************************
  
 +------------+-------------+-------------+-----------------+ <-- min LBFGS
 |    Step    |   lambda    |   F.delta'  |    enthalpy     | <-- min LBFGS
 +------------+-------------+-------------+-----------------+ <-- min LBFGS
 |  previous  |    0.000000 |    1.732173 |    -3191.084647 | <-- min LBFGS
 | trial step |    0.782240 |   -3.134371 |    -3190.385408 | <-- min LBFGS
 +------------+-------------+-------------+-----------------+ <-- min LBFGS
  

--------------------------------------------------------------------------------
 LBFGS: improving iteration         1 with line minimization (lambda=  0.278427)
--------------------------------------------------------------------------------
 
                           -------------------------------
                                     Cell Contents
                           -------------------------------
 
            xxxxxxxxxxxxxxxxxxxxxxxxxxxxxxxxxxxxxxxxxxxxxxxxxxxxxxxxxxxxxxxxx
            x  Element         Atom        Fractional coordinates of atoms  x
            x                 Number           u          v          w      x
            x---------------------------------------------------------------x
            x  H                 1         0.434022   0.381075   0.545426   x
            x  H                 2         0.507617   0.432685   0.521979   x
            x  H                 3         0.406202   0.476124   0.580279   x
            x  H                 4         0.477655   0.527648   0.556724   x
            x  H                 5         0.312807   0.360778   0.506063   x
            x  H                 6         0.252101   0.427929   0.488665   x
            x  H                 7         0.366354   0.376100   0.454305   x
            x  H                 8         0.468518   0.385691   0.478122   x
            x  H                 9         0.450217   0.510396   0.473683   x
            x  H                10         0.348634   0.498082   0.449312   x
            x  H                11         0.668227   0.439376   0.422674   x
            x  H                12         0.563471   0.552929   0.393462   x
            x  H                13         0.495972   0.420265   0.380122   x
            x  H                14         0.295577   0.456362   0.537200   x
            x  H                15         0.364262   0.500933   0.513955   x
            x  H                16         0.556306   0.406142   0.589472   x
            x  H                17         0.627094   0.457259   0.565883   x
            x  H                18         0.653383   0.487578   0.619039   x
            x  H                19         0.524596   0.501770   0.623698   x
            x  H                20         0.595506   0.553348   0.599912   x
            x  C                 1         0.446980   0.432088   0.538351   x
            x  C                 2         0.469062   0.476710   0.564556   x
            x  C                 3         0.323826   0.409867   0.496630   x
            x  C                 4         0.398678   0.408787   0.471181   x
            x  C                 5         0.418927   0.476220   0.457058   x
            x  C                 6         0.563557   0.456769   0.581249   x
            x  C                 7         0.585373   0.502446   0.607428   x
            x  N                 1         0.353653   0.453875   0.522135   x
            x  O                 1         0.524123   0.548035   0.411906   x
            x  O                 2         0.458659   0.424836   0.398973   x
            x  O                 3         0.613259   0.441780   0.437230   x
            x  Si                1         0.506385   0.473101   0.424890   x
            xxxxxxxxxxxxxxxxxxxxxxxxxxxxxxxxxxxxxxxxxxxxxxxxxxxxxxxxxxxxxxxxx
 
 
------------------------------------------------------------------------ <-- SCF
SCF loop      Energy                           Energy gain       Timer   <-- SCF
                                               per atom          (sec)   <-- SCF
------------------------------------------------------------------------ <-- SCF
Initial  -3.21101937E+003                                         98.18  <-- SCF
      1  -3.18968762E+003                   -6.66617220E-001      99.02  <-- SCF
      2  -3.19077758E+003                    3.40612253E-002     100.12  <-- SCF
      3  -3.19033289E+003                   -1.38963582E-002     101.12  <-- SCF
      4  -3.19047496E+003                    4.43957875E-003     102.19  <-- SCF
      5  -3.19050813E+003                    1.03662764E-003     103.33  <-- SCF
      6  -3.19050900E+003                    2.71248015E-005     104.24  <-- SCF
      7  -3.19050969E+003                    2.15859658E-005     105.06  <-- SCF
      8  -3.19051017E+003                    1.49827475E-005     105.82  <-- SCF
      9  -3.19051065E+003                    1.49537494E-005     106.62  <-- SCF
     10  -3.19051108E+003                    1.35549596E-005     107.38  <-- SCF
     11  -3.19051137E+003                    9.07432206E-006     108.15  <-- SCF
     12  -3.19051179E+003                    1.31268480E-005     108.92  <-- SCF
     13  -3.19051198E+003                    6.01328564E-006     109.71  <-- SCF
     14  -3.19051221E+003                    6.99913387E-006     110.51  <-- SCF
     15  -3.19051236E+003                    4.63185420E-006     111.29  <-- SCF
     16  -3.19051244E+003                    2.52874019E-006     112.06  <-- SCF
     17  -3.19051249E+003                    1.71728547E-006     112.84  <-- SCF
     18  -3.19051251E+003                    6.25997955E-007     113.61  <-- SCF
     19  -3.19051251E+003                   -8.47155126E-008     114.39  <-- SCF
------------------------------------------------------------------------ <-- SCF
 
Final energy =  -3190.512509835     eV
(energy not corrected for finite basis set)
 
(SEDC) Total Energy Correction : -0.774566E+00 eV

Dispersion corrected final energy* =  -3191.287075503     eV
 
 ************************************** Forces **************************************
 *                                                                                  *
 *                           Cartesian components (eV/A)                            *
 * -------------------------------------------------------------------------------- *
 *                         x                    y                    z              *
 *                                                                                  *
 * H               1     -0.00191              0.09870             -0.09495         *
 * H               2     -0.11712              0.01680              0.03312         *
 * H               3     -0.02896              0.01470             -0.02673         *
 * H               4     -0.02623              0.00749             -0.03773         *
 * H               5      0.04251              0.03152              0.05428         *
 * H               6     -0.09762              0.09762             -0.00535         *
 * H               7      0.03596             -0.04059              0.02847         *
 * H               8      0.01352             -0.01766              0.03178         *
 * H               9      0.08294              0.02525             -0.10981         *
 * H              10      0.06919              0.03570             -0.04881         *
 * H              11     -0.69790              0.00387              0.70039         *
 * H              12     -0.60851              0.00614              0.82805         *
 * H              13     -0.58038              0.04447              0.83491         *
 * H              14      0.29220              0.05567             -0.16747         *
 * H              15      0.00542             -0.26537              0.14363         *
 * H              16     -0.02464             -0.05058             -0.05498         *
 * H              17     -0.03243             -0.00087             -0.08659         *
 * H              18     -0.02840             -0.04504             -0.01610         *
 * H              19     -0.01583             -0.01407             -0.01479         *
 * H              20      0.00021              0.01351             -0.00343         *
 * C               1      0.04022              0.02023              0.03994         *
 * C               2     -0.01717              0.08112              0.07595         *
 * C               3     -0.02028             -0.15213             -0.23576         *
 * C               4      0.02713              0.06898             -0.09688         *
 * C               5     -0.24876             -0.00332              0.32029         *
 * C               6      0.08288             -0.01087              0.07459         *
 * C               7     -0.03227              0.04481             -0.03167         *
 * N               1      0.04453             -0.06141              0.11332         *
 * O               1      0.33880              0.02144             -0.49201         *
 * O               2      0.36143             -0.01161             -0.45239         *
 * O               3      0.24041              0.08489             -0.44236         *
 * Si              1      0.90107             -0.09938             -0.86090         *
 *                                                                                  *
 ************************************************************************************
  
 +------------+-------------+-------------+-----------------+ <-- min LBFGS
 |    Step    |   lambda    |   F.delta'  |    enthalpy     | <-- min LBFGS
 +------------+-------------+-------------+-----------------+ <-- min LBFGS
 |  previous  |    0.000000 |    1.732173 |    -3191.084647 | <-- min LBFGS
 | trial step |    0.782240 |   -3.134371 |    -3190.385408 | <-- min LBFGS
 |  line step |    0.278427 |   -0.240430 |    -3191.287076 | <-- min LBFGS
 +------------+-------------+-------------+-----------------+ <-- min LBFGS
  
 LBFGS: finished iteration     1 with enthalpy= -3.19128708E+003 eV
  
 +-----------+-----------------+-----------------+------------+-----+ <-- LBFGS
 | Parameter |      value      |    tolerance    |    units   | OK? | <-- LBFGS
 +-----------+-----------------+-----------------+------------+-----+ <-- LBFGS
 |  dE/ion   |   6.325875E-003 |   2.000000E-005 |         eV | No  | <-- LBFGS
 |  |F|max   |   1.250185E+000 |   5.000000E-002 |       eV/A | No  | <-- LBFGS
 |  |dR|max  |   9.417633E-002 |   2.000000E-003 |          A | No  | <-- LBFGS
 +-----------+-----------------+-----------------+------------+-----+ <-- LBFGS
  

================================================================================
 Starting LBFGS iteration          2 ...
================================================================================
  
 +------------+-------------+-------------+-----------------+ <-- min LBFGS
 |    Step    |   lambda    |   F.delta'  |    enthalpy     | <-- min LBFGS
 +------------+-------------+-------------+-----------------+ <-- min LBFGS
 |  previous  |    0.000000 |    0.673490 |    -3191.287076 | <-- min LBFGS
 +------------+-------------+-------------+-----------------+ <-- min LBFGS
  

--------------------------------------------------------------------------------
 LBFGS: starting iteration         2 with trial guess (lambda=  1.000000)
--------------------------------------------------------------------------------
 
                           -------------------------------
                                     Cell Contents
                           -------------------------------
 
            xxxxxxxxxxxxxxxxxxxxxxxxxxxxxxxxxxxxxxxxxxxxxxxxxxxxxxxxxxxxxxxxx
            x  Element         Atom        Fractional coordinates of atoms  x
            x                 Number           u          v          w      x
            x---------------------------------------------------------------x
            x  H                 1         0.435616   0.381737   0.544271   x
            x  H                 2         0.508223   0.432814   0.521214   x
            x  H                 3         0.407191   0.476161   0.579227   x
            x  H                 4         0.478631   0.527593   0.555652   x
            x  H                 5         0.316136   0.360534   0.505341   x
            x  H                 6         0.254806   0.427399   0.487828   x
            x  H                 7         0.369270   0.375719   0.454075   x
            x  H                 8         0.470771   0.385401   0.477708   x
            x  H                 9         0.453400   0.510695   0.473239   x
            x  H                10         0.351467   0.498419   0.449001   x
            x  H                11         0.660209   0.439458   0.427320   x
            x  H                12         0.553650   0.556889   0.397439   x
            x  H                13         0.484489   0.419447   0.383896   x
            x  H                14         0.300269   0.455387   0.536531   x
            x  H                15         0.368663   0.499794   0.513354   x
            x  H                16         0.556732   0.405803   0.588094   x
            x  H                17         0.627149   0.457031   0.564533   x
            x  H                18         0.652695   0.487200   0.617639   x
            x  H                19         0.524624   0.501578   0.622357   x
            x  H                20         0.595451   0.553234   0.598665   x
            x  C                 1         0.448689   0.432499   0.537576   x
            x  C                 2         0.470191   0.476849   0.563616   x
            x  C                 3         0.326169   0.408749   0.495480   x
            x  C                 4         0.401605   0.408501   0.470581   x
            x  C                 5         0.420642   0.476312   0.457057   x
            x  C                 6         0.564562   0.456401   0.580104   x
            x  C                 7         0.585204   0.502453   0.606156   x
            x  N                 1         0.359317   0.451421   0.521431   x
            x  O                 1         0.517673   0.552289   0.414765   x
            x  O                 2         0.449872   0.423705   0.401545   x
            x  O                 3         0.608572   0.441862   0.441015   x
            x  Si                1         0.509065   0.473652   0.424854   x
            xxxxxxxxxxxxxxxxxxxxxxxxxxxxxxxxxxxxxxxxxxxxxxxxxxxxxxxxxxxxxxxxx
 
 
------------------------------------------------------------------------ <-- SCF
SCF loop      Energy                           Energy gain       Timer   <-- SCF
                                               per atom          (sec)   <-- SCF
------------------------------------------------------------------------ <-- SCF
Initial  -3.22480247E+003                                        115.74  <-- SCF
      1  -3.18842705E+003                   -1.13673180E+000     116.57  <-- SCF
      2  -3.19023365E+003                    5.64559896E-002     117.78  <-- SCF
      3  -3.18994698E+003                   -8.95836305E-003     118.90  <-- SCF
      4  -3.19012752E+003                    5.64180289E-003     119.91  <-- SCF
      5  -3.19012796E+003                    1.39230361E-005     120.99  <-- SCF
      6  -3.19012822E+003                    7.98220363E-006     122.02  <-- SCF
      7  -3.19012708E+003                   -3.53951539E-005     122.92  <-- SCF
      8  -3.19012592E+003                   -3.64289575E-005     123.81  <-- SCF
      9  -3.19012499E+003                   -2.90526192E-005     124.73  <-- SCF
     10  -3.19012524E+003                    7.94296132E-006     125.55  <-- SCF
     11  -3.19012572E+003                    1.48355738E-005     126.37  <-- SCF
     12  -3.19012625E+003                    1.65130176E-005     127.14  <-- SCF
     13  -3.19012670E+003                    1.42490051E-005     127.91  <-- SCF
     14  -3.19012709E+003                    1.20123562E-005     128.68  <-- SCF
     15  -3.19012735E+003                    8.10945123E-006     129.45  <-- SCF
     16  -3.19012757E+003                    7.15611392E-006     130.22  <-- SCF
     17  -3.19012779E+003                    6.68943216E-006     131.00  <-- SCF
     18  -3.19012786E+003                    2.24065910E-006     131.77  <-- SCF
     19  -3.19012799E+003                    3.94856171E-006     132.55  <-- SCF
     20  -3.19012805E+003                    1.92134459E-006     133.33  <-- SCF
     21  -3.19012815E+003                    3.16121068E-006     134.11  <-- SCF
     22  -3.19012825E+003                    3.14678920E-006     134.90  <-- SCF
     23  -3.19012830E+003                    1.69373016E-006     135.69  <-- SCF
     24  -3.19012844E+003                    4.28640674E-006     136.47  <-- SCF
     25  -3.19012850E+003                    1.89718129E-006     137.26  <-- SCF
     26  -3.19012857E+003                    2.24906275E-006     138.04  <-- SCF
     27  -3.19012867E+003                    2.94641845E-006     138.83  <-- SCF
     28  -3.19012873E+003                    2.05591951E-006     139.63  <-- SCF
     29  -3.19012885E+003                    3.56310575E-006     140.45  <-- SCF
     30  -3.19012893E+003                    2.42782444E-006     141.24  <-- SCF
     31  -3.19012902E+003                    2.91116125E-006     142.03  <-- SCF
     32  -3.19012917E+003                    4.61591043E-006     142.82  <-- SCF
     33  -3.19012928E+003                    3.48784856E-006     143.60  <-- SCF
     34  -3.19012944E+003                    5.04669477E-006     144.39  <-- SCF
     35  -3.19012952E+003                    2.63841217E-006     145.18  <-- SCF
     36  -3.19012961E+003                    2.80580153E-006     145.97  <-- SCF
     37  -3.19012967E+003                    1.80110370E-006     146.75  <-- SCF
     38  -3.19012973E+003                    1.72650148E-006     147.54  <-- SCF
     39  -3.19012976E+003                    1.02735803E-006     148.32  <-- SCF
     40  -3.19012979E+003                    8.68162153E-007     149.11  <-- SCF
------------------------------------------------------------------------ <-- SCF
 
Final energy =  -3190.129787872     eV
(energy not corrected for finite basis set)
 
(SEDC) Total Energy Correction : -0.789151E+00 eV

Dispersion corrected final energy* =  -3190.918938657     eV
 
[...]
 * H              20     -0.00354             -0.00928              0.00403         *
 * C               1     -0.00134              0.01353              0.01405         *
 * C               2      0.00339             -0.01204             -0.00447         *
 * C               3     -0.00746             -0.00096              0.00453         *
 * C               4     -0.00328              0.00294              0.00562         *
 * C               5      0.00696             -0.00760              0.00297         *
 * C               6      0.00880              0.00658             -0.00625         *
 * C               7     -0.00078              0.00274             -0.00413         *
 * N               1     -0.00860             -0.00184             -0.00744         *
 * O               1      0.01493             -0.00512              0.01445         *
 * O               2     -0.00076              0.00439              0.00068         *
 * O               3     -0.00527             -0.00259              0.00238         *
 * Si              1      0.00121              0.00790              0.00047         *
 *                                                                                  *
 ************************************************************************************
 
 Pseudo atomic calculation performed for H 1s1
 
 Converged in 13 iterations to a total energy of -12.4790 eV
 
 Pseudo atomic calculation performed for C 2s2 2p2
 
 Converged in 17 iterations to a total energy of -148.5208 eV
 
 Pseudo atomic calculation performed for N 2s2 2p3
 
 Converged in 21 iterations to a total energy of -268.1820 eV
 
 Pseudo atomic calculation performed for O 2s2 2p4
 
 Converged in 23 iterations to a total energy of -432.6536 eV
 
 Pseudo atomic calculation performed for Si 3s2 3p2
 
 Converged in 11 iterations to a total energy of -165.0683 eV
Charge spilling parameter for spin component 1 = 1.54%
 
            Orbital Populations       
     Ion    Atom   Orbital             Charge
  -------------------------------------------
      H     1      S                    0.688
      H     2      S                    0.695
      H     3      S                    0.732
      H     4      S                    0.731
      H     5      S                    0.680
      H     6      S                    0.685
      H     7      S                    0.679
      H     8      S                    0.722
      H     9      S                    0.776
      H    10      S                    0.727
      H    11      S                    0.465
      H    12      S                    0.455
      H    13      S                    0.458
      H    14      S                    0.504
      H    15      S                    0.521
      H    16      S                    0.726
      H    17      S                    0.732
      H    18      S                    0.703
      H    19      S                    0.723
      H    20      S                    0.729
      C     1      S                    1.294
      C     1      Px                   0.901
      C     1      Py                   1.158
      C     1      Pz                   1.042
      C     2      S                    1.298
      C     2      Px                   1.104
      C     2      Py                   1.098
      C     2      Pz                   1.020
      C     3      S                    1.311
      C     3      Px                   1.137
      C     3      Py                   1.088
      C     3      Pz                   0.882
      C     4      S                    1.295
      C     4      Px                   1.098
      C     4      Py                   1.063
      C     4      Pz                   1.079
      C     5      S                    1.398
      C     5      Px                   1.267
      C     5      Py                   1.037
      C     5      Pz                   1.256
      C     6      S                    1.304
      C     6      Px                   1.023
      C     6      Py                   1.133
      C     6      Pz                   1.050
      C     7      S                    1.400
      C     7      Px                   1.212
      C     7      Py                   1.122
      C     7      Pz                   1.062
      N     1      S                    1.584
      N     1      Px                   1.335
      N     1      Py                   1.376
      N     1      Pz                   1.330
      O     1      S                    1.855
      O     1      Px                   1.861
      O     1      Py                   1.716
      O     1      Pz                   1.665
      O     2      S                    1.853
      O     2      Px                   1.830
      O     2      Py                   1.795
      O     2      Pz                   1.620
      O     3      S                    1.856
      O     3      Px                   1.523
      O     3      Py                   1.881
      O     3      Pz                   1.844
     Si     1      S                    0.711
     Si     1      Px                   0.360
     Si     1      Py                   0.336
     Si     1      Pz                   0.406
  -------------------------------------------
                           Total:      74.000
  -------------------------------------------
 
     Atomic Populations (Mulliken)
     -----------------------------
Species          Ion     s       p       d       f      Total   Charge (e)
==========================================================================
  H               1     0.688   0.000   0.000   0.000   0.688     0.312
  H               2     0.695   0.000   0.000   0.000   0.695     0.305
  H               3     0.732   0.000   0.000   0.000   0.732     0.268
  H               4     0.731   0.000   0.000   0.000   0.731     0.269
  H               5     0.680   0.000   0.000   0.000   0.680     0.320
  H               6     0.685   0.000   0.000   0.000   0.685     0.315
  H               7     0.679   0.000   0.000   0.000   0.679     0.321
  H               8     0.722   0.000   0.000   0.000   0.722     0.278
  H               9     0.776   0.000   0.000   0.000   0.776     0.224
  H              10     0.727   0.000   0.000   0.000   0.727     0.273
  H              11     0.465   0.000   0.000   0.000   0.465     0.535
  H              12     0.455   0.000   0.000   0.000   0.455     0.545
  H              13     0.458   0.000   0.000   0.000   0.458     0.542
  H              14     0.504   0.000   0.000   0.000   0.504     0.496
  H              15     0.521   0.000   0.000   0.000   0.521     0.479
  H              16     0.726   0.000   0.000   0.000   0.726     0.274
  H              17     0.732   0.000   0.000   0.000   0.732     0.268
  H              18     0.703   0.000   0.000   0.000   0.703     0.297
  H              19     0.723   0.000   0.000   0.000   0.723     0.277
  H              20     0.729   0.000   0.000   0.000   0.729     0.271
  C               1     1.294   3.101   0.000   0.000   4.395    -0.395
  C               2     1.298   3.223   0.000   0.000   4.521    -0.521
  C               3     1.311   3.107   0.000   0.000   4.418    -0.418
  C               4     1.295   3.240   0.000   0.000   4.535    -0.535
  C               5     1.398   3.559   0.000   0.000   4.958    -0.958
  C               6     1.304   3.205   0.000   0.000   4.509    -0.509
  C               7     1.400   3.395   0.000   0.000   4.795    -0.795
  N               1     1.584   4.041   0.000   0.000   5.625    -0.625
  O               1     1.855   5.241   0.000   0.000   7.097    -1.097
  O               2     1.853   5.245   0.000   0.000   7.099    -1.099
  O               3     1.856   5.249   0.000   0.000   7.106    -1.106
  Si              1     0.711   1.101   0.000   0.000   1.812     2.188
==========================================================================
 
                 Bond                   Population      Length (A)
======================================================================
              H 12 -- O 1                    0.53        0.96844
              H 11 -- O 3                    0.53        0.96898
              H 13 -- O 2                    0.53        0.96915
              H 14 -- N 1                    0.68        1.02790
              H 15 -- N 1                    0.69        1.03254
              H 2  -- C 1                    0.87        1.09700
              H 18 -- C 7                    0.81        1.09772
              H 1  -- C 1                    0.85        1.09892
              H 5  -- C 3                    0.84        1.09909
              H 6  -- C 3                    0.84        1.09909
              H 19 -- C 7                    0.81        1.09941
              H 20 -- C 7                    0.81        1.09942
              H 7  -- C 4                    0.84        1.10016
              H 8  -- C 4                    0.86        1.10036
              H 16 -- C 6                    0.84        1.10181
              H 17 -- C 6                    0.84        1.10274
              H 10 -- C 5                    0.82        1.10331
              H 4  -- C 2                    0.84        1.10386
              H 3  -- C 2                    0.85        1.10426
              H 9  -- C 5                    0.83        1.10570
               C 1 -- N 1                    0.51        1.51063
               C 3 -- N 1                    0.50        1.51539
               C 1 -- C 2                    0.71        1.51960
               C 3 -- C 4                    0.71        1.52269
               C 6 -- C 7                    0.65        1.52803
               C 2 -- C 6                    0.68        1.53371
               C 4 -- C 5                    0.66        1.53694
               O 1 -- Si 1                   0.50        1.64313
               O 2 -- Si 1                   0.51        1.64460
               O 3 -- Si 1                   0.50        1.64950
              H 14 -- H 15                  -0.11        1.65642
              H 7  -- H 8                   -0.10        1.75631
              H 16 -- H 17                  -0.12        1.76866
              H 18 -- H 19                  -0.10        1.77182
              H 18 -- H 20                  -0.10        1.77415
              H 3  -- H 4                   -0.12        1.77882
              H 19 -- H 20                  -0.10        1.77943
              H 9  -- H 10                  -0.10        1.78339
              H 1  -- H 2                   -0.11        1.78568
              H 5  -- H 6                   -0.10        1.79417
               C 5 -- Si 1                   0.57        1.88434
              H 15 -- C 3                   -0.13        2.07317
              H 14 -- C 1                   -0.13        2.07940
              H 15 -- C 1                   -0.12        2.07975
              H 6  -- N 1                   -0.12        2.09845
              H 14 -- C 3                   -0.13        2.10150
              H 1  -- N 1                   -0.11        2.10391
              H 2  -- N 1                   -0.11        2.10461
              H 5  -- N 1                   -0.11        2.11090
              H 7  -- C 3                   -0.14        2.11505
              H 9  -- H 15                  -0.02        2.12329
              H 17 -- C 2                   -0.14        2.15653
              H 16 -- C 2                   -0.14        2.15741
              H 3  -- C 1                   -0.14        2.16180
              H 4  -- C 1                   -0.13        2.16370
              H 8  -- C 3                   -0.14        2.16630
              H 17 -- C 7                   -0.13        2.16662
              H 4  -- C 6                   -0.12        2.16665
              H 7  -- C 5                   -0.12        2.16799
              H 3  -- C 6                   -0.12        2.16901
              H 16 -- C 7                   -0.13        2.17128
              H 6  -- C 4                   -0.13        2.17435
              H 8  -- C 5                   -0.13        2.17636
              H 18 -- C 6                   -0.12        2.17808
              H 2  -- C 2                   -0.12        2.17831
              H 20 -- C 6                   -0.12        2.17847
              H 1  -- C 2                   -0.12        2.18103
              H 19 -- C 6                   -0.12        2.18428
              H 10 -- C 4                   -0.11        2.19187
              H 5  -- C 4                   -0.12        2.19225
              H 9  -- C 4                   -0.11        2.20393
              H 2  -- H 8                   -0.04        2.22701
              H 11 -- Si 1                  -0.14        2.26687
              H 12 -- Si 1                  -0.13        2.27857
              H 13 -- Si 1                  -0.13        2.30006
              H 6  -- H 14                  -0.04        2.33826
              H 2  -- H 15                  -0.03        2.37349
              H 6  -- H 15                  -0.03        2.38393
              H 1  -- H 14                  -0.03        2.43288
              H 5  -- H 14                  -0.02        2.43321
              H 9  -- Si 1                  -0.13        2.43964
              H 3  -- H 14                  -0.01        2.44746
              H 6  -- H 7                   -0.04        2.45065
              H 1  -- H 5                   -0.01        2.47164
              H 10 -- Si 1                  -0.11        2.47710
              H 5  -- H 8                   -0.03        2.48207
              H 4  -- H 17                  -0.03        2.49748
               C 2 -- N 1                   -0.14        2.50204
              H 16 -- H 18                  -0.03        2.50368
              H 5  -- H 7                   -0.02        2.50745
               C 1 -- C 6                   -0.15        2.50823
               C 4 -- N 1                   -0.13        2.50906
              H 17 -- H 20                  -0.03        2.51291
              H 2  -- H 4                   -0.03        2.51729
              H 3  -- H 16                  -0.03        2.51738
              H 17 -- H 18                  -0.03        2.51935
              H 1  -- H 16                  -0.01        2.51960
              H 1  -- H 3                   -0.03        2.52848
              H 4  -- H 15                  -0.00        2.53484
              H 8  -- H 9                   -0.03        2.53524
               C 2 -- C 7                   -0.15        2.54483
              H 16 -- H 19                  -0.03        2.54797
              H 2  -- H 17                  -0.01        2.55216
               C 1 -- C 3                   -0.13        2.55774
              H 7  -- H 10                  -0.02        2.55786
               C 3 -- C 5                   -0.15        2.56962
              H 15 -- C 5                   -0.01        2.58022
              H 3  -- H 19                  -0.01        2.58199
              H 4  -- H 20                  -0.01        2.61275
              H 2  -- H 9                   -0.01        2.63263
              H 6  -- H 10                  -0.00        2.64913
              H 14 -- C 2                   -0.04        2.64947
              H 15 -- C 4                   -0.04        2.66300
               O 1 -- O 3                   -0.08        2.66433
              H 16 -- C 1                   -0.04        2.70887
              H 15 -- C 2                   -0.03        2.71506
              H 2  -- C 4                   -0.03        2.72088
              H 17 -- C 1                   -0.04        2.72731
              H 1  -- C 3                   -0.04        2.72893
              H 10 -- H 15                  -0.00        2.73178
              H 7  -- O 2                    0.00        2.73659
              H 3  -- N 1                   -0.03        2.73747
              H 8  -- O 3                   -0.00        2.74164
               O 1 -- O 2                   -0.07        2.75016
              H 4  -- N 1                   -0.02        2.75497
              H 5  -- C 1                   -0.04        2.75853
              H 9  -- N 1                   -0.03        2.76225
               O 2 -- O 3                   -0.07        2.77053
              H 2  -- C 3                   -0.02        2.77219
              H 3  -- C 7                   -0.04        2.77378
               C 5 -- O 2                   -0.11        2.77660
              H 1  -- C 6                   -0.03        2.77890
               C 5 -- O 3                   -0.11        2.78304
              H 4  -- C 7                   -0.03        2.78486
              H 2  -- C 6                   -0.03        2.78994
              H 11 -- O 1                   -0.01        2.79341
              H 10 -- C 3                   -0.04        2.80335
              H 19 -- C 2                   -0.04        2.80636
               C 4 -- Si 1                  -0.15        2.81316
              H 20 -- C 2                   -0.03        2.82301
              H 8  -- N 1                   -0.01        2.83961
              H 8  -- C 1                   -0.03        2.85403
              H 6  -- C 5                   -0.03        2.85729
              H 12 -- O 2                   -0.01        2.86062
              H 9  -- C 3                   -0.02        2.91316
              H 7  -- Si 1                  -0.06        2.94533
               C 5 -- O 1                   -0.09        2.94633
              H 2  -- H 14                   0.03        2.95276
              H 5  -- H 15                   0.03        2.95413
              H 1  -- H 15                   0.03        2.95499
              H 9  -- O 3                   -0.01        2.97861
              H 4  -- H 14                  -0.00        2.98344
              H 10 -- O 2                   -0.00        2.99077
              H 8  -- Si 1                  -0.05        2.99335
======================================================================
 
 
     Hirshfeld Analysis
     ------------------
Species   Ion     Hirshfeld Charge (e)
======================================
  H        1                 0.07
  H        2                 0.07
  H        3                 0.05
  H        4                 0.05
  H        5                 0.07
  H        6                 0.07
  H        7                 0.06
  H        8                 0.05
  H        9                 0.03
  H       10                 0.05
  H       11                 0.17
  H       12                 0.18
  H       13                 0.18
  H       14                 0.18
  H       15                 0.16
  H       16                 0.04
  H       17                 0.04
  H       18                 0.05
  H       19                 0.05
  H       20                 0.04
  C        1                 0.01
  C        2                -0.06
  C        3                 0.02
  C        4                -0.06
  C        5                -0.15
  C        6                -0.05
  C        7                -0.10
  N        1                 0.03
  O        1                -0.28
  O        2                -0.28
  O        3                -0.29
  Si       1                 0.48
======================================
 

Writing analysis data to Conf_0031.castep_bin

Writing model to Conf_0031.check
 
 A BibTeX formatted list of references used in this run has been written to 
 Conf_0031.bib
 
Initialisation time =     24.57 s
Calculation time    =   1058.72 s
Finalisation time   =      1.14 s
Total time          =   1084.43 s
Peak Memory Use     = 7929924 kB
 
Overall parallel efficiency rating: Satisfactory (66%)
 
Data was distributed by:-
G-vector (48-way); efficiency rating: Satisfactory (66%)
High Water Mark     = 1912328 kB
