 Job started on host drago31040137.mgmt.cc.csic.es
 at Sun Mar 31 01:03:56 2024

 +-------------------------------------------------+
 |                                                 |
 |      CCC   AA    SSS  TTTTT  EEEEE  PPPP        |
 |     C     A  A  S       T    E      P   P       |
 |     C     AAAA   SS     T    EEE    PPPP        |
 |     C     A  A     S    T    E      P           |
 |      CCC  A  A  SSS     T    EEEEE  P           |
 |                                                 |
 +-------------------------------------------------+
 |                                                 |
 | Materials Studio CASTEP version 2024            |
 | Ab Initio Total Energy Program                  |
 |                                                 |
 | Authors:                                        |
 | M. Segall, M. Probert, C. Pickard, P. Hasnip,   |
 | S. Clark, K. Refson, J. R. Yates,               |
 | A. Bartok-Partay, M. Payne                      |
 |                                                 |
 | Contributors:                                   |
 | P. Lindan, P. Haynes, J. White, V. Milman,      |
 | N. Govind, M. Gibson, P. Tulip, V. Cocula,      |
 | B. Montanari, D. Quigley, M. Glover,            |
 | L. Bernasconi, A. Perlov, M. Plummer,           |
 | E. McNellis, J. Meyer, J. Gale, D. Jochym       |
 | J. Aarons, B. Walker, R. Gillen, D. Jones       |
 | T. Green, I. J. Bush, C. J. Armstrong,          |
 | E. J. Higgins, E. L. Brown, M. S. McFly,        |
 | J. Wilkins, B-C. Shih, P. J. P. Byrne,          |
 | R. J. Maurer, J. C. Womack, J. Dziedzic,        |
 | L. LeBlanc, T. K. Stenczel, J. Kermode,         |
 | S. Sturniolo, B. Shi, B. Durham, M. Evans,      |
 | M. J. Smith, A. Tamerus, Z. Hawkhead,           |
 | V. Ravindran, T. Hollins, S. A. Joyce,          |
 | R. T. Strong, A. M. Reilly                      |
 |                                                 |
 | Copyright (c) 2000 - 2023                       |
 |                                                 |
 | Please cite                                     |
 |                                                 |
 |     "First principles methods using CASTEP"     |
 |                                                 |
 |         Zeitschrift fuer Kristallographie       |
 |           220(5-6) pp. 567-570 (2005)           |
 |                                                 |
 | S. J. Clark, M. D. Segall, C. J. Pickard,       |
 | P. J. Hasnip, M. J. Probert, K. Refson,         |
 | M. C. Payne                                     |
 |                                                 |
 |       in all publications arising from          |
 |              your use of CASTEP                 |
 |                                                 |
 +-------------------------------------------------+
 |                                                 |
 |              http://www.castep.org              |
 |                                                 |
 +-------------------------------------------------+
 
 
 This version was compiled for x86_64-rhel7-intel19.0 on Oct 24 2023
 Code version:    a9f326b
 Intel(R) Math Kernel Library Version 2019.0.4 
 Fundamental constants values: CODATA 2018
 
License checkout of MS_castep successful
 
 
 Atomic calculation performed for H: 1s1
 
 Converged in 41 iterations to an ae energy of -12.488 eV
 
 Identity difference: 2.63E-05
 
   ============================================================                
   | Pseudopotential Report - Date of generation 31-03-2024   |                
   ------------------------------------------------------------                
   | Element: H Ionic charge:  1.00 Level of theory: PBE      |                
   | Atomic Solver: Koelling-Harmon                           |                
   |                                                          |                
   |               Reference Electronic Structure             |                
   |         Orbital         Occupation         Energy        |                
   |            1s              1.000           -0.239        |                
   |                                                          |                
   |                 Pseudopotential Definition               |                
   |        Beta     l      e      Rc     scheme   norm       |                
   |          1      0   -0.239   0.599     qc      0         |                
   |          2      0    0.250   0.599     qc      0         |                
   |         loc     1    0.000   0.599     pn      0         |                
   |                                                          |                
   | Augmentation charge Rinner = 0.421                       |                
   | No partial core correction                               |                
   ------------------------------------------------------------                
   | "1|0.6|9|10|15|10UU(qc=8)[]"                             |                
   ------------------------------------------------------------                
   |      Author: Chris J. Pickard, Cambridge University      |                
   ============================================================                
 
 Doing a self consistent calculation for the test configuration
 
 Atomic calculation performed for H: 1s1
 
 Converged in 41 iterations to an ae energy of -12.488 eV
 
 ---------------------------------------
 AE eigenvalue nl 10 =       -0.23860176
 ---------------------------------------
 PS eigenvalue nl 10 =       -0.23857601
 ---------------------------------------
 Maximum eigenvalue error:   2.57E-05
 
 Derived cutoff energies: C=   1 M=   6 F=  10 E=  20
 
 Checking for ghost states up to   1.51185 Ha
 
 No Ghost States Identified
 
 ***************************************
 
 Atomic calculation performed for C: 1s2 2s2 2p2
 
 Converged in 54 iterations to an ae energy of -1027.632 eV
 
 Identity difference: 2.37E-04
 
   ============================================================                
   | Pseudopotential Report - Date of generation 31-03-2024   |                
   ------------------------------------------------------------                
   | Element: C Ionic charge:  4.00 Level of theory: PBE      |                
   | Atomic Solver: Koelling-Harmon                           |                
   |                                                          |                
   |               Reference Electronic Structure             |                
   |         Orbital         Occupation         Energy        |                
   |            2s              2.000           -0.505        |                
   |            2p              2.000           -0.194        |                
   |                                                          |                
   |                 Pseudopotential Definition               |                
   |        Beta     l      e      Rc     scheme   norm       |                
   |          1      0   -0.505   1.395     qc      0         |                
   |          2      0    0.250   1.395     qc      0         |                
   |          3      1   -0.194   1.395     qc      0         |                
   |          4      1    0.250   1.395     qc      0         |                
   |         loc     2    0.000   1.395     pn      0         |                
   |                                                          |                
   | Augmentation charge Rinner = 0.983                       |                
   | Partial core correction Rc = 0.983                       |                
   ------------------------------------------------------------                
   | "2|1.4|11|12|14.7|20UU:21UU(qc=7)[]"                     |                
   ------------------------------------------------------------                
   |      Author: Chris J. Pickard, Cambridge University      |                
   ============================================================                
 
 Doing a self consistent calculation for the test configuration
 
 Atomic calculation performed for C: 1s2 2s2 2p2
 
 Converged in 54 iterations to an ae energy of -1027.632 eV
 
 ---------------------------------------
 AE eigenvalue nl 10 =      -10.04653081
 AE eigenvalue nl 20 =       -0.50533429
 AE eigenvalue nl 21 =       -0.19423807
 ---------------------------------------
 PS eigenvalue nl 20 =       -0.50531853
 PS eigenvalue nl 21 =       -0.19422214
 ---------------------------------------
 Maximum eigenvalue error:   1.59E-05
 
 Derived cutoff energies: C=   6 M=  10 F=  12 E=  16
 
 Checking for ghost states up to   1.47183 Ha
 
 No Ghost States Identified
 
 ***************************************
 
 Atomic calculation performed for N: 1s2 2s2 2p3
 
 Converged in 55 iterations to an ae energy of -1481.742 eV
 
 Identity difference: 2.27E-04
 
   ============================================================                
   | Pseudopotential Report - Date of generation 31-03-2024   |                
   ------------------------------------------------------------                
   | Element: N Ionic charge:  5.00 Level of theory: PBE      |                
   | Atomic Solver: Koelling-Harmon                           |                
   |                                                          |                
   |               Reference Electronic Structure             |                
   |         Orbital         Occupation         Energy        |                
   |            2s              2.000           -0.683        |                
   |            2p              3.000           -0.261        |                
   |                                                          |                
   |                 Pseudopotential Definition               |                
   |        Beta     l      e      Rc     scheme   norm       |                
   |          1      0   -0.683   1.100     qc      0         |                
   |          2      0    0.250   1.100     qc      0         |                
   |          3      1   -0.261   1.100     qc      0         |                
   |          4      1    0.250   1.100     qc      0         |                
   |         loc     2    0.000   1.100     pn      0         |                
   |                                                          |                
   | Augmentation charge Rinner = 0.769                       |                
   | Partial core correction Rc = 0.769                       |                
   ------------------------------------------------------------                
   | "2|1.1|12|16|19|20UU:21UU(qc=7)[]"                       |                
   ------------------------------------------------------------                
   |      Author: Chris J. Pickard, Cambridge University      |                
   ============================================================                
 
 Doing a self consistent calculation for the test configuration
 
 Atomic calculation performed for N: 1s2 2s2 2p3
 
 Converged in 55 iterations to an ae energy of -1481.742 eV
 
 ---------------------------------------
 AE eigenvalue nl 10 =      -14.13820921
 AE eigenvalue nl 20 =       -0.68290611
 AE eigenvalue nl 21 =       -0.26054797
 ---------------------------------------
 PS eigenvalue nl 20 =       -0.68291221
 PS eigenvalue nl 21 =       -0.26051708
 ---------------------------------------
 Maximum eigenvalue error:   3.09E-05
 
 Derived cutoff energies: C=  10 M=  15 F=  18 E=  23
 
 Checking for ghost states up to   1.48495 Ha
 
 No Ghost States Identified
 
 ***************************************
 
 Atomic calculation performed for O: 1s2 2s2 2p4
 
 Converged in 61 iterations to an ae energy of -2040.902 eV
 
 Identity difference: 4.10E-04
 
   ============================================================                
   | Pseudopotential Report - Date of generation 31-03-2024   |                
   ------------------------------------------------------------                
   | Element: O Ionic charge:  6.00 Level of theory: PBE      |                
   | Atomic Solver: Koelling-Harmon                           |                
   |                                                          |                
   |               Reference Electronic Structure             |                
   |         Orbital         Occupation         Energy        |                
   |            2s              2.000           -0.881        |                
   |            2p              4.000           -0.332        |                
   |                                                          |                
   |                 Pseudopotential Definition               |                
   |        Beta     l      e      Rc     scheme   norm       |                
   |          1      0   -0.881   1.100     qc      0         |                
   |          2      0    0.250   1.100     qc      0         |                
   |          3      1   -0.332   1.100     qc      0         |                
   |          4      1    0.250   1.100     qc      0         |                
   |         loc     2    0.000   1.100     pn      0         |                
   |                                                          |                
   | Augmentation charge Rinner = 0.769                       |                
   | Partial core correction Rc = 0.769                       |                
   ------------------------------------------------------------                
   | "2|1.1|14|18|21|20UU:21UU(qc=7)[]"                       |                
   ------------------------------------------------------------                
   |      Author: Chris J. Pickard, Cambridge University      |                
   ============================================================                
 
 Doing a self consistent calculation for the test configuration
 
 Atomic calculation performed for O: 1s2 2s2 2p4
 
 Converged in 61 iterations to an ae energy of -2040.902 eV
 
 ---------------------------------------
 AE eigenvalue nl 10 =      -18.91475256
 AE eigenvalue nl 20 =       -0.88057101
 AE eigenvalue nl 21 =       -0.33186952
 ---------------------------------------
 PS eigenvalue nl 20 =       -0.88059206
 PS eigenvalue nl 21 =       -0.33182157
 ---------------------------------------
 Maximum eigenvalue error:   4.80E-05
 
 Derived cutoff energies: C=  14 M=  17 F=  20 E=  22
 
 Checking for ghost states up to   1.49452 Ha
 
 No Ghost States Identified
 
 ***************************************
 
 Atomic calculation performed for Si: 1s2 2s2 2p6 3s2 3p2
 
 Converged in 54 iterations to an ae energy of -7886.857 eV
 
 Identity difference: 1.35E-04
 
   ============================================================                
   | Pseudopotential Report - Date of generation 31-03-2024   |                
   ------------------------------------------------------------                
   | Element: Si Ionic charge:  4.00 Level of theory: PBE     |                
   | Atomic Solver: Koelling-Harmon                           |                
   |                                                          |                
   |               Reference Electronic Structure             |                
   |         Orbital         Occupation         Energy        |                
   |            3s              2.000           -0.397        |                
   |            3p              2.000           -0.150        |                
   |                                                          |                
   |                 Pseudopotential Definition               |                
   |        Beta     l      e      Rc     scheme   norm       |                
   |          1      0   -0.397   1.797     qc      0         |                
   |          2      0    0.250   1.797     qc      0         |                
   |          3      1   -0.150   1.797     qc      0         |                
   |          4      1    0.250   1.797     qc      0         |                
   |          5      2    0.000   1.797     qc      0         |                
   |          6      2    0.250   1.797     qc      0         |                
   |         loc     3    0.000   1.797     pn      0         |                
   |                                                          |                
   | Augmentation charge Rinner = 1.255                       |                
   | Partial core correction Rc = 1.255                       |                
   ------------------------------------------------------------                
   | "3|1.8|3.6|5|7|30UU:31UU:32UU[]"                         |                
   ------------------------------------------------------------                
   |      Author: Chris J. Pickard, Cambridge University      |                
   ============================================================                
 
 Doing a self consistent calculation for the test configuration
 
 Atomic calculation performed for Si: 1s2 2s2 2p6 3s2 3p2
 
 Converged in 54 iterations to an ae energy of -7886.857 eV
 
 ---------------------------------------
 AE eigenvalue nl 10 =      -65.63192903
 AE eigenvalue nl 20 =       -5.12654326
 AE eigenvalue nl 21 =       -3.51173659
 AE eigenvalue nl 30 =       -0.39736430
 AE eigenvalue nl 31 =       -0.14998156
 ---------------------------------------
 PS eigenvalue nl 30 =       -0.39734922
 PS eigenvalue nl 31 =       -0.14996719
 ---------------------------------------
 Maximum eigenvalue error:   1.51E-05
 
 Derived cutoff energies: C=   1 M=   3 F=   6 E=   6
 
 Checking for ghost states up to   1.41161 Ha
 
 No Ghost States Identified
 
 ***************************************
 
 Pseudo atomic calculation performed for H 1s1
 
 Converged in 13 iterations to a total energy of -12.4790 eV
 
 Pseudo atomic calculation performed for C 2s2 2p2
 
 Converged in 17 iterations to a total energy of -148.5208 eV
 
 Pseudo atomic calculation performed for N 2s2 2p3
 
 Converged in 21 iterations to a total energy of -268.1820 eV
 
 Pseudo atomic calculation performed for O 2s2 2p4
 
 Converged in 23 iterations to a total energy of -432.6536 eV
 
 Pseudo atomic calculation performed for Si 3s2 3p2
 
 Converged in 11 iterations to a total energy of -165.0683 eV
 Calculation parallelised over 48 processes.
 Data is distributed by G-vector(48-way)

 ************************************ Title ************************************
 CASTEP calculation from BIOVIA Materials Studio 2024

 ***************************** General Parameters ******************************
  
 output verbosity                               : normal  (1)
 write checkpoint data to                       : Conf_0012.check
 type of calculation                            : geometry optimization
 stress calculation                             : off
 density difference calculation                 : off
 electron localisation func (ELF) calculation   : off
 Hirshfeld analysis                             : on
 polarisation (Berry phase) analysis            : off
 molecular orbital projected DOS                : off
 deltaSCF calculation                           : off
 unlimited duration calculation
 timing information                             : on
 memory usage estimate                          : on
 write extra output files                       : on
 write final potential to formatted file        : off
 write final density to formatted file          : off
 write BibTeX reference list                    : on
 write OTFG pseudopotential files               : on
 write electrostatic potential file             : on
 write bands file                               : on
 checkpoint writing                             : both castep_bin and check files
  
 output         length unit                     : A
 output           mass unit                     : amu
 output           time unit                     : ps
 output         charge unit                     : e
 output           spin unit                     : hbar/2
 output         energy unit                     : eV
 output          force unit                     : eV/A
 output       velocity unit                     : A/ps
 output       pressure unit                     : GPa
 output     inv_length unit                     : 1/A
 output      frequency unit                     : cm-1
 output force constant unit                     : eV/A**2
 output         volume unit                     : A**3
 output   IR intensity unit                     : (D/A)**2/amu
 output         dipole unit                     : D
 output         efield unit                     : eV/A/e
 output        entropy unit                     : J/mol/K
 output    efield chi2 unit                     : pm/V
  
 wavefunctions paging                           : none
 random number generator seed                   :   10359560
 data distribution                              : optimal for this architecture
 optimization strategy                          : balance speed and memory

 *********************** Exchange-Correlation Parameters ***********************
  
 using functional                               : Perdew Burke Ernzerhof
 relativistic treatment                         : Koelling-Harmon
 DFT+D: Semi-empirical dispersion correction    : on
 SEDC with                                      : G06 correction scheme

 ************************* Pseudopotential Parameters **************************
  
 pseudopotential representation                 : reciprocal space
 <beta|phi> representation                      : reciprocal space
 spin-orbit coupling                            : off

 **************************** Basis Set Parameters *****************************
  
 plane wave basis set cut-off                   :   600.0000   eV
 size of standard grid                          :     1.5000
 size of   fine   gmax                          :    18.8237   1/A
 largest prime factor in FFT                    :          5
 finite basis set correction                    : none

 **************************** Electronic Parameters ****************************
  
 number of  electrons                           :  74.00    
 net charge of system                           : +1.000    
 treating system as non-spin-polarized
 number of bands                                :         37

 ********************* Electronic Minimization Parameters **********************
  
 Method: Treating system as non-metallic,
         and number of  SD  steps               :          1
         and number of  CG  steps               :          4
  
 total energy / atom convergence tol.           : 0.2000E-05   eV
 eigen-energy convergence tolerance             : 0.1000E-05   eV
 max force / atom convergence tol.              : ignored
 convergence tolerance window                   :          3   cycles
 max. number of SCF cycles                      :        100
 periodic dipole correction                     : NONE

 ************************** Density Mixing Parameters **************************
  
 density-mixing scheme                          : Pulay
 max. length of mixing history                  :         20
 charge density mixing amplitude                : 0.5000    
 cut-off energy for mixing                      :  600.0       eV
 charge density mixing g-vector                 :  1.500       1/A

 *********************** Population Analysis Parameters ************************
  
 Population analysis with cutoff                :  3.000       A
 Population analysis output                     : summary and pdos components

 ********************** Geometry Optimization Parameters ***********************
  
 optimization method                            : LBFGS
 max. no. of LBFGS updates                      : unbounded
 preconditioned LBFGS is activated
 preconditioner type                            : EXP
     stabilization constant                     :     0.1000
     parameter A                                :     3.0000
     nearest neighbor distance                  : automatic
     cut-off distance                           : automatic
     parameter mu                               : automatic
 variable cell method                           : fixed basis quality
 max. number of steps                           :        300
 estimated bulk modulus                         :  500.0       GPa
 estimated <frequency>                          :  1668.       cm-1
 geom line minimiser                            : on
 with line minimiser tolerance                  :     0.4000
 total energy convergence tolerance             : 0.2000E-04   eV/atom
        max ionic |force| tolerance             : 0.5000E-01   eV/A
 max ionic |displacement| tolerance             : 0.2000E-02   A
   max |stress component| tolerance             : 0.1000       GPa
 convergence tolerance window                   :          2   steps
 backup results every                           :          5   steps
 write geom trajectory file                     : on

 *******************************************************************************
  
 
                           -------------------------------
                                      Unit Cell
                           -------------------------------
        Real Lattice(A)                      Reciprocal Lattice(1/A)
    13.4840002    -0.0000006    -0.0000006        0.465973392   0.000000000   0.000000000
     0.0000000    20.4006996    -0.0000009        0.000000013   0.307988717   0.000000000
     0.0000000     0.0000000    45.0000000        0.000000006   0.000000006   0.139626340
 
                       Lattice parameters(A)       Cell Angles
                    a =     13.484000          alpha =   90.000003
                    b =     20.400700          beta  =   90.000003
                    c =     45.000000          gamma =   90.000003
 
                       Current cell volume =         12378.736702       A**3
                                   density =             0.015698   AMU/A**3
                                           =             0.026068     g/cm^3
 
                           -------------------------------
                                     Cell Contents
                           -------------------------------
                         Total number of ions in cell =   32
                      Total number of species in cell =    5
                        Max number of any one species =   20
 
            xxxxxxxxxxxxxxxxxxxxxxxxxxxxxxxxxxxxxxxxxxxxxxxxxxxxxxxxxxxx
            x  Element    Atom        Fractional coordinates of atoms  x
            x            Number           u          v          w      x
            x----------------------------------------------------------x
            x  H            1         0.564245   0.466504   0.543980   x 
            x  H            2         0.619481   0.542020   0.556121   x 
            x  H            3         0.454186   0.466716   0.589525   x 
            x  H            4         0.510299   0.540840   0.601696   x 
            x  H            5         0.435852   0.603370   0.502921   x 
            x  H            6         0.564315   0.600352   0.512113   x 
            x  H            7         0.442506   0.485249   0.486029   x 
            x  H            8         0.571410   0.482706   0.494247   x 
            x  H            9         0.600749   0.576025   0.458683   x 
            x  H           10         0.472751   0.577349   0.449910   x 
            x  H           11         0.674277   0.403648   0.422346   x 
            x  H           12         0.591635   0.488653   0.377882   x 
            x  H           13         0.455491   0.404821   0.406545   x 
            x  H           14         0.405766   0.522744   0.540881   x 
            x  H           15         0.453134   0.591319   0.553768   x 
            x  H           16         0.618776   0.409654   0.592646   x 
            x  H           17         0.675277   0.483422   0.604652   x 
            x  H           18         0.637743   0.410272   0.647741   x 
            x  H           19         0.509669   0.410041   0.638360   x 
            x  H           20         0.567728   0.483847   0.650409   x 
            x  C            1         0.552077   0.511465   0.557076   x 
            x  C            2         0.523719   0.495269   0.589089   x 
            x  C            3         0.496084   0.570654   0.510487   x 
            x  C            4         0.510110   0.515546   0.487755   x 
            x  C            5         0.533870   0.544997   0.457076   x 
            x  C            6         0.604868   0.455692   0.604895   x 
            x  C            7         0.578470   0.439109   0.637051   x 
            x  N            1         0.467643   0.550691   0.541655   x 
            x  O            1         0.584626   0.514534   0.395247   x 
            x  O            2         0.457131   0.436119   0.422114   x 
            x  O            3         0.646503   0.432489   0.436626   x 
            x  Si           1         0.555901   0.481017   0.426920   x 
            xxxxxxxxxxxxxxxxxxxxxxxxxxxxxxxxxxxxxxxxxxxxxxxxxxxxxxxxxxxx
 
 
                         No user defined ionic velocities
 
                           -------------------------------
                                   Details of Species
                           -------------------------------
 
                               Mass of species in AMU
                                    H    1.0080000
                                    C   12.0109997
                                    N   14.0070000
                                    O   15.9989996
                                    Si   28.0849991
 
                          Electric Quadrupole Moment (Barn)
                                    H    0.0028600 Isotope  2
                                    C    0.0332700 Isotope 11
                                    N    0.0204400 Isotope 14
                                    O   -0.0255800 Isotope 17
                                    Si    1.0000000 No Isotope Defined
 
                          Files used for pseudopotentials:
                                    H 1|0.6|9|10|15|10UU(qc=8)[]
                                    C 2|1.4|11|12|14.7|20UU:21UU(qc=7)[]
                                    N 2|1.1|12|16|19|20UU:21UU(qc=7)[]
                                    O 2|1.1|14|18|21|20UU:21UU(qc=7)[]
                                    Si 3|1.8|3.6|5|7|30UU:31UU:32UU[]
 
                           -------------------------------
                              k-Points For BZ Sampling
                           -------------------------------
                       MP grid size for SCF calculation is  1  1  1
                            with an offset of   0.000  0.000  0.000
                       Number of kpoints used =             1
 
                           -------------------------------
                               Symmetry and Constraints
                           -------------------------------
 
                      Maximum deviation from symmetry =  0.00000         ANG
 
                      Number of symmetry operations   =           1
                      Number of nonlinear constraints =           3
         There are no ionic constraints specified or generated for this cell
                      Point group of crystal =     1: C1, 1, 1
                      Space group of crystal =     1: P1, P 1
 
             Set iprint > 1 for details on symmetry rotations/translations
 
                         Centre of mass is NOT constrained
 
                         Number of cell constraints= 6
                         Cell constraints are:  0 0 0 0 0 0
 
                         External pressure/stress (GPa)
                          0.00000   0.00000   0.00000
                                    0.00000   0.00000
                                              0.00000
 
                                --------------------
                                  DFT-D parameters
                                --------------------
 
                          Dispersion-correction scheme : G06       
                        Parameter s6 :   0.750000 (default)
                        Parameter d  :  20.000000 (default)
 
        xxxxxxxxxxxxxxxxxxxxxxxxxxxxxxxxxxxxxxxxxxxxxxxxxxxxxxxxxxxxxxxxxxxx
        x              Atomic DFT-D parameters                             x
        x  Species      C6            R0                                   x
        x               eV A^6        Ang                                  x
        x------------------------------------------------------------------x
        x  H             1.4510       1.0010   (default)                   x
        x  C            18.1375       1.4520   (default)                   x
        x  N            12.7481       1.3970   (default)                   x
        x  O             7.2550       1.3420   (default)                   x
        x  Si           95.6622       1.7160   (default)                   x
        xxxxxxxxxxxxxxxxxxxxxxxxxxxxxxxxxxxxxxxxxxxxxxxxxxxxxxxxxxxxxxxxxxxx
 
 
+---------------- MEMORY AND SCRATCH DISK ESTIMATES PER PROCESS --------------+
|                                                     Memory          Disk    |
| Baseline code, static data and system overhead     6530.0 MB         0.0 MB |
| BLAS internal memory storage                          0.0 MB         0.0 MB |
| Model and support data                              540.6 MB         0.0 MB |
| Electronic energy minimisation requirements          31.8 MB         0.0 MB |
| Force calculation requirements                        6.8 MB         0.0 MB |
|                                               ----------------------------- |
| Approx. total storage required per process         7102.3 MB         0.0 MB |
|                                                                             |
| Requirements will fluctuate during execution and may exceed these estimates |
+-----------------------------------------------------------------------------+
Calculating approximate eigenstates for fixed initial Hamiltonian
Cut-off for approx. calculation is  119.774 eV
Improving approx. states at cut-off of  300.000 eV
Resetting cut-off to  600.000 eV
Calculating total energy with cut-off of  600.000 eV.
------------------------------------------------------------------------ <-- SCF
SCF loop      Energy                           Energy gain       Timer   <-- SCF
                                               per atom          (sec)   <-- SCF
------------------------------------------------------------------------ <-- SCF
Initial  -2.93940506E+003                                         30.86  <-- SCF
      1  -3.20289888E+003                    8.23418172E+000      31.67  <-- SCF
      2  -3.20356953E+003                    2.09580606E-002      32.57  <-- SCF
      3  -3.19278248E+003                   -3.37095451E-001      33.59  <-- SCF
      4  -3.19157238E+003                   -3.78154430E-002      34.78  <-- SCF
      5  -3.19093433E+003                   -1.99391583E-002      35.80  <-- SCF
      6  -3.19083322E+003                   -3.15981055E-003      37.10  <-- SCF
      7  -3.19075569E+003                   -2.42261727E-003      38.12  <-- SCF
      8  -3.19074356E+003                   -3.79045818E-004      39.23  <-- SCF
      9  -3.19072849E+003                   -4.71155633E-004      40.25  <-- SCF
     10  -3.19071109E+003                   -5.43708642E-004      41.29  <-- SCF
     11  -3.19068556E+003                   -7.97707879E-004      42.38  <-- SCF
     12  -3.19064004E+003                   -1.42257301E-003      43.41  <-- SCF
     13  -3.19057900E+003                   -1.90752341E-003      44.47  <-- SCF
     14  -3.19051256E+003                   -2.07614680E-003      45.56  <-- SCF
     15  -3.19046060E+003                   -1.62388430E-003      46.58  <-- SCF
     16  -3.19041864E+003                   -1.31132548E-003      47.57  <-- SCF
     17  -3.19038411E+003                   -1.07887553E-003      48.56  <-- SCF
     18  -3.19035875E+003                   -7.92489374E-004      49.56  <-- SCF
     19  -3.19033517E+003                   -7.36890375E-004      50.53  <-- SCF
     20  -3.19031302E+003                   -6.92195836E-004      51.42  <-- SCF
     21  -3.19028555E+003                   -8.58555348E-004      52.39  <-- SCF
     22  -3.19027461E+003                   -3.41875740E-004      53.30  <-- SCF
     23  -3.19027063E+003                   -1.24160104E-004      54.23  <-- SCF
     24  -3.19027088E+003                    7.81159932E-006      55.16  <-- SCF
     25  -3.19027334E+003                    7.67042296E-005      55.96  <-- SCF
     26  -3.19027773E+003                    1.37336295E-004      56.80  <-- SCF
     27  -3.19028304E+003                    1.65697925E-004      57.64  <-- SCF
     28  -3.19028526E+003                    6.95708546E-005      58.47  <-- SCF
     29  -3.19028806E+003                    8.73810113E-005      59.30  <-- SCF
     30  -3.19029140E+003                    1.04438658E-004      60.12  <-- SCF
     31  -3.19029377E+003                    7.39014323E-005      60.92  <-- SCF
     32  -3.19029581E+003                    6.38124791E-005      61.72  <-- SCF
     33  -3.19029713E+003                    4.13079045E-005      62.51  <-- SCF
     34  -3.19029811E+003                    3.05434327E-005      63.31  <-- SCF
     35  -3.19029878E+003                    2.11380918E-005      64.11  <-- SCF
     36  -3.19029962E+003                    2.62373905E-005      64.91  <-- SCF
     37  -3.19030007E+003                    1.38640227E-005      65.71  <-- SCF
     38  -3.19030036E+003                    9.05558654E-006      66.50  <-- SCF
     39  -3.19030062E+003                    8.34975899E-006      67.29  <-- SCF
     40  -3.19030089E+003                    8.45215352E-006      68.09  <-- SCF
     41  -3.19030120E+003                    9.58140651E-006      68.88  <-- SCF
     42  -3.19030140E+003                    6.35092964E-006      69.69  <-- SCF
     43  -3.19030160E+003                    6.15094389E-006      70.48  <-- SCF
     44  -3.19030172E+003                    3.59633154E-006      71.28  <-- SCF
     45  -3.19030179E+003                    2.46992318E-006      72.08  <-- SCF
     46  -3.19030184E+003                    1.51380959E-006      72.87  <-- SCF
     47  -3.19030187E+003                    7.77006878E-007      73.67  <-- SCF
     48  -3.19030189E+003                    8.29093183E-007      74.51  <-- SCF
------------------------------------------------------------------------ <-- SCF
 
Final energy =  -3190.301894172     eV
(energy not corrected for finite basis set)
 
(SEDC) Total Energy Correction : -0.738126E+00 eV

Dispersion corrected final energy* =  -3191.040020063     eV

Writing analysis data to Conf_0012.castep_bin

Writing model to Conf_0012.check

WARNING - nonlinear constraints cannot be used with LBFGS algorithm
        - consider setting geom_method=DELOCALIZED
 
        => Turning nonlinear constraints OFF
 
+---------------- MEMORY AND SCRATCH DISK ESTIMATES PER PROCESS --------------+
|                                                     Memory          Disk    |
| Model and support data                              550.1 MB         0.0 MB |
| Electronic energy minimisation requirements          31.8 MB         0.0 MB |
| Geometry minimisation requirements                   34.8 MB         0.0 MB |
|                                               ----------------------------- |
| Approx. total storage required per process          616.7 MB         0.0 MB |
|                                                                             |
| Requirements will fluctuate during execution and may exceed these estimates |
+-----------------------------------------------------------------------------+
 
 
 ************************************** Forces **************************************
 *                                                                                  *
 *                           Cartesian components (eV/A)                            *
 * -------------------------------------------------------------------------------- *
 *                         x                    y                    z              *
 *                                                                                  *
 * H               1     -0.12743              0.26379              0.00542         *
 * H               2     -0.19831             -0.00097             -0.13329         *
 * H               3     -0.01736              0.04266             -0.05237         *
 * H               4     -0.00076             -0.00441             -0.03942         *
 * H               5      0.16783             -0.05065              0.02095         *
 * H               6     -0.16302             -0.09330              0.11798         *
 * H               7     -0.00810              0.02684              0.07941         *
 * H               8     -0.06391              0.07747              0.08026         *
 * H               9     -0.03266             -0.05633             -0.05973         *
 * H              10      0.08474             -0.04324             -0.04015         *
 * H              11      0.43653             -0.57709             -0.63467         *
 * H              12      0.05812             -0.44595             -0.90349         *
 * H              13     -0.10180             -0.67114             -0.71372         *
 * H              14     -0.61467             -0.39428              0.10543         *
 * H              15     -0.18530              0.47404              0.45352         *
 * H              16     -0.01397              0.13671             -0.02717         *
 * H              17     -0.11051             -0.00175             -0.09880         *
 * H              18     -0.09275              0.11098             -0.11605         *
 * H              19      0.08910              0.07090             -0.04748         *
 * H              20     -0.00240             -0.05766             -0.06456         *
 * C               1     -0.49484             -0.00058              0.34811         *
 * C               2      0.01565              0.00106              0.01322         *
 * C               3     -0.19404              0.61876             -0.70929         *
 * C               4      0.04543             -0.29412              0.20837         *
 * C               5      0.03999             -0.19459             -0.26507         *
 * C               6      0.26862             -0.13401             -0.00551         *
 * C               7     -0.10027             -0.00040              0.18780         *
 * N               1      1.79782             -1.09924             -0.56377         *
 * O               1      0.06155              1.43725              0.62751         *
 * O               2     -0.86312              0.59585              1.19895         *
 * O               3      0.22834              0.46627              1.51535         *
 * Si              1      0.09149             -0.20287             -0.48776         *
 *                                                                                  *
 ************************************************************************************
 EXP precond LBFGS => estimated nearest neighbor distance :  1.628       A
 EXP precond LBFGS => estimated cutoff distance :  3.255       A
 doing test perturbation to get energy scale for EXP preconditioner
 
                           -------------------------------
                                     Cell Contents
                           -------------------------------
 
            xxxxxxxxxxxxxxxxxxxxxxxxxxxxxxxxxxxxxxxxxxxxxxxxxxxxxxxxxxxxxxxxx
            x  Element         Atom        Fractional coordinates of atoms  x
            x                 Number           u          v          w      x
            x---------------------------------------------------------------x
            x  H                 1         0.565291   0.467079   0.544309   x
            x  H                 2         0.620383   0.542351   0.556444   x
            x  H                 3         0.455385   0.467291   0.589825   x
            x  H                 4         0.511444   0.541175   0.601986   x
            x  H                 5         0.437057   0.603466   0.503269   x
            x  H                 6         0.565360   0.600460   0.512458   x
            x  H                 7         0.443710   0.485771   0.486382   x
            x  H                 8         0.572439   0.483235   0.494598   x
            x  H                 9         0.601704   0.576228   0.459043   x
            x  H                10         0.473937   0.577547   0.450271   x
            x  H                11         0.674998   0.404366   0.422708   x
            x  H                12         0.592614   0.489164   0.378238   x
            x  H                13         0.456689   0.405538   0.406905   x
            x  H                14         0.406970   0.523143   0.541212   x
            x  H                15         0.454333   0.591462   0.554091   x
            x  H                16         0.619679   0.410361   0.592943   x
            x  H                17         0.675994   0.483949   0.604940   x
            x  H                18         0.638588   0.410978   0.647991   x
            x  H                19         0.510815   0.410748   0.638619   x
            x  H                20         0.568766   0.484373   0.650657   x
            x  C                 1         0.553149   0.511903   0.557398   x
            x  C                 2         0.524844   0.495759   0.589390   x
            x  C                 3         0.497247   0.570877   0.510833   x
            x  C                 4         0.511255   0.515970   0.488108   x
            x  C                 5         0.534977   0.545317   0.457436   x
            x  C                 6         0.605811   0.456296   0.605183   x
            x  C                 7         0.579482   0.439755   0.637311   x
            x  N                 1         0.468834   0.550990   0.541986   x
            x  O                 1         0.585623   0.514961   0.395606   x
            x  O                 2         0.458329   0.436771   0.422475   x
            x  O                 3         0.647319   0.433150   0.436988   x
            x  Si                1         0.556965   0.481551   0.427282   x
            xxxxxxxxxxxxxxxxxxxxxxxxxxxxxxxxxxxxxxxxxxxxxxxxxxxxxxxxxxxxxxxxx
 
 
------------------------------------------------------------------------ <-- SCF
SCF loop      Energy                           Energy gain       Timer   <-- SCF
                                               per atom          (sec)   <-- SCF
------------------------------------------------------------------------ <-- SCF
Initial  -3.19276852E+003                                         76.49  <-- SCF
      1  -3.19027235E+003                   -7.80052733E-002      77.30  <-- SCF
      2  -3.19029729E+003                    7.79455322E-004      78.47  <-- SCF
      3  -3.19026837E+003                   -9.03811430E-004      79.48  <-- SCF
      4  -3.19028788E+003                    6.09647327E-004      80.49  <-- SCF
      5  -3.19028804E+003                    4.91038397E-006      81.35  <-- SCF
      6  -3.19028834E+003                    9.30929896E-006      82.12  <-- SCF
      7  -3.19028840E+003                    1.87914357E-006      82.89  <-- SCF
      8  -3.19028847E+003                    2.27148519E-006      83.66  <-- SCF
      9  -3.19028850E+003                    9.91363449E-007      84.43  <-- SCF
     10  -3.19028856E+003                    1.76912811E-006      85.20  <-- SCF
     11  -3.19028858E+003                    7.39294779E-007      85.97  <-- SCF
     12  -3.19028862E+003                    1.07957664E-006      86.74  <-- SCF
------------------------------------------------------------------------ <-- SCF
 
Final energy =  -3190.288615676     eV
(energy not corrected for finite basis set)
 
(SEDC) Total Energy Correction : -0.738343E+00 eV

Dispersion corrected final energy* =  -3191.026958324     eV
 
 ************************************** Forces **************************************
 *                                                                                  *
 *                           Cartesian components (eV/A)                            *
 * -------------------------------------------------------------------------------- *
 *                         x                    y                    z              *
 *                                                                                  *
 * H               1     -0.11456              0.18167             -0.03367         *
 * H               2     -0.12226              0.05848             -0.14906         *
 * H               3     -0.06399              0.00290             -0.05871         *
 * H               4     -0.01780              0.07935              0.00319         *
 * H               5      0.12064              0.00076              0.00455         *
 * H               6     -0.10542             -0.03339              0.13087         *
 * H               7     -0.04269             -0.02212              0.08219         *
 * H               8     -0.02099              0.01723              0.10044         *
 * H               9      0.03259              0.01538             -0.07270         *
 * H              10      0.02802              0.00929             -0.04423         *
 * H              11      0.46903             -0.62692             -0.66206         *
 * H              12      0.08651             -0.46222             -0.92520         *
 * H              13     -0.11004             -0.71973             -0.75514         *
 * H              14     -0.65300             -0.44666              0.08705         *
 * H              15     -0.21517              0.59420              0.51299         *
 * H              16     -0.00236              0.07415             -0.05905         *
 * H              17     -0.01938              0.04733             -0.10211         *
 * H              18     -0.03917              0.06384             -0.07861         *
 * H              19      0.02416              0.03107             -0.04486         *
 * H              20      0.01768              0.00609             -0.02470         *
 * C               1     -0.55067             -0.00960              0.36627         *
 * C               2      0.00432             -0.01523             -0.02342         *
 * C               3     -0.22184              0.63622             -0.69335         *
 * C               4      0.02913             -0.31971              0.18516         *
 * C               5      0.01503             -0.21986             -0.24896         *
 * C               6      0.23799             -0.16421              0.01282         *
 * C               7     -0.10612             -0.00154              0.15771         *
 * N               1      1.86817             -1.14923             -0.58911         *
 * O               1      0.05205              1.48414              0.59329         *
 * O               2     -0.94635              0.58128              1.22188         *
 * O               3      0.30449              0.43819              1.59461         *
 * Si              1      0.06199             -0.13117             -0.48810         *
 *                                                                                  *
 ************************************************************************************
 EXP precond LBFGS => estimated parameter mu :  2.179       eV/A**2
 LBFGS: finished iteration     0 with enthalpy= -3.19104002E+003 eV
  
 +-----------+-----------------+-----------------+------------+-----+ <-- LBFGS
 | Parameter |      value      |    tolerance    |    units   | OK? | <-- LBFGS
 +-----------+-----------------+-----------------+------------+-----+ <-- LBFGS
 |  dE/ion   |   0.000000E+000 |   2.000000E-005 |         eV | No  | <-- LBFGS
 |  |F|max   |   2.271093E+000 |   5.000000E-002 |       eV/A | No  | <-- LBFGS
 |  |dR|max  |   7.995143E-015 |   2.000000E-003 |          A | No  | <-- LBFGS
 +-----------+-----------------+-----------------+------------+-----+ <-- LBFGS
  

================================================================================
 Starting LBFGS iteration          1 ...
================================================================================
  
 +------------+-------------+-------------+-----------------+ <-- min LBFGS
 |    Step    |   lambda    |   F.delta'  |    enthalpy     | <-- min LBFGS
 +------------+-------------+-------------+-----------------+ <-- min LBFGS
 |  previous  |    0.000000 |    1.801493 |    -3191.040020 | <-- min LBFGS
 +------------+-------------+-------------+-----------------+ <-- min LBFGS
  

--------------------------------------------------------------------------------
 LBFGS: starting iteration         1 with trial guess (lambda=  0.996653)
--------------------------------------------------------------------------------
 
                           -------------------------------
                                     Cell Contents
                           -------------------------------
 
            xxxxxxxxxxxxxxxxxxxxxxxxxxxxxxxxxxxxxxxxxxxxxxxxxxxxxxxxxxxxxxxxx
            x  Element         Atom        Fractional coordinates of atoms  x
            x                 Number           u          v          w      x
            x---------------------------------------------------------------x
            x  H                 1         0.562808   0.465828   0.543484   x
            x  H                 2         0.617603   0.540465   0.555373   x
            x  H                 3         0.453689   0.465660   0.588725   x
            x  H                 4         0.509897   0.539627   0.600918   x
            x  H                 5         0.438060   0.601722   0.502119   x
            x  H                 6         0.564535   0.598641   0.511467   x
            x  H                 7         0.443186   0.483862   0.485991   x
            x  H                 8         0.571821   0.481575   0.494221   x
            x  H                 9         0.601536   0.575015   0.458364   x
            x  H                10         0.474101   0.576384   0.449608   x
            x  H                11         0.682910   0.404295   0.425376   x
            x  H                12         0.592724   0.496468   0.377245   x
            x  H                13         0.445461   0.405369   0.408304   x
            x  H                14         0.405586   0.518558   0.540318   x
            x  H                15         0.454941   0.589760   0.553661   x
            x  H                16         0.618274   0.409449   0.591755   x
            x  H                17         0.674220   0.482678   0.603636   x
            x  H                18         0.636320   0.410412   0.646676   x
            x  H                19         0.509325   0.409980   0.637427   x
            x  H                20         0.566852   0.483288   0.649445   x
            x  C                 1         0.550215   0.509860   0.556749   x
            x  C                 2         0.523254   0.494099   0.588373   x
            x  C                 3         0.496953   0.569961   0.509215   x
            x  C                 4         0.511033   0.513655   0.487657   x
            x  C                 5         0.534871   0.543876   0.456707   x
            x  C                 6         0.604988   0.454807   0.604024   x
            x  C                 7         0.577410   0.438803   0.636282   x
            x  N                 1         0.473485   0.546319   0.540647   x
            x  O                 1         0.585627   0.526490   0.396602   x
            x  O                 2         0.445425   0.440127   0.426019   x
            x  O                 3         0.653233   0.436007   0.441914   x
            x  Si                1         0.555950   0.484094   0.428147   x
            xxxxxxxxxxxxxxxxxxxxxxxxxxxxxxxxxxxxxxxxxxxxxxxxxxxxxxxxxxxxxxxxx
 
 
------------------------------------------------------------------------ <-- SCF
SCF loop      Energy                           Energy gain       Timer   <-- SCF
                                               per atom          (sec)   <-- SCF
------------------------------------------------------------------------ <-- SCF
Initial  -3.21446449E+003                                         88.09  <-- SCF
      1  -3.18540650E+003                   -9.08062227E-001      88.92  <-- SCF
      2  -3.19015362E+003                    1.48347483E-001      90.32  <-- SCF
      3  -3.18937527E+003                   -2.43235343E-002      91.45  <-- SCF
      4  -3.18951622E+003                    4.40476006E-003      92.49  <-- SCF
      5  -3.18955117E+003                    1.09225957E-003      93.67  <-- SCF
      6  -3.18955591E+003                    1.48162456E-004      94.72  <-- SCF
      7  -3.18955693E+003                    3.17245751E-005      95.60  <-- SCF
      8  -3.18955782E+003                    2.79620711E-005      96.48  <-- SCF
      9  -3.18955825E+003                    1.33353864E-005      97.36  <-- SCF
     10  -3.18955837E+003                    3.72077679E-006      98.13  <-- SCF
     11  -3.18955836E+003                   -2.91725274E-007      98.91  <-- SCF
     12  -3.18955835E+003                   -4.40009481E-007      99.68  <-- SCF
------------------------------------------------------------------------ <-- SCF
 
Final energy =  -3189.558345896     eV
(energy not corrected for finite basis set)
 
(SEDC) Total Energy Correction : -0.746008E+00 eV

Dispersion corrected final energy* =  -3190.304354235     eV
 
 ************************************** Forces **************************************
 *                                                                                  *
 *                           Cartesian components (eV/A)                            *
 * -------------------------------------------------------------------------------- *
 *                         x                    y                    z              *
 *                                                                                  *
 * H               1      0.17197             -0.25476              0.04768         *
 * H               2     -0.02285             -0.14440              0.07598         *
 * H               3     -0.05585             -0.00605              0.07043         *
 * H               4     -0.04228              0.06378             -0.00339         *
 * H               5     -0.69362              0.46673             -0.07824         *
 * H               6      0.28472              0.17698             -0.01876         *
 * H               7     -0.05785             -0.01998              0.01445         *
 * H               8      0.23504             -0.14324              0.12561         *
 * H               9     -0.03114             -0.05829              0.02199         *
 * H              10     -0.02458             -0.00100             -0.00730         *
 * H              11     -1.18446              1.98682              2.35092         *
 * H              12     -0.30256              2.05419              2.71855         *
 * H              13     -0.08468              2.19589              2.54564         *
 * H              14      1.31985              0.69992             -0.01207         *
 * H              15      0.36766             -1.62089             -0.96980         *
 * H              16      0.06606             -0.22726             -0.14398         *
 * H              17      0.19828              0.16763             -0.03554         *
 * H              18      0.19286             -0.14790              0.12323         *
 * H              19     -0.19850             -0.11804             -0.00094         *
 * H              20     -0.05966              0.18919              0.05979         *
 * C               1      1.12444             -0.24151             -0.32653         *
 * C               2     -0.19756             -0.06882              0.27352         *
 * C               3      0.63859             -1.01845              0.43860         *
 * C               4     -0.10401              0.42395             -0.62644         *
 * C               5     -0.25924              0.91756              1.32280         *
 * C               6     -0.33034              0.06681              0.25630         *
 * C               7      0.09433              0.09185             -0.33774         *
 * N               1     -2.85729              1.92757              0.82690         *
 * O               1     -0.07039             -3.00042             -1.52675         *
 * O               2      1.77477             -1.31707             -2.50911         *
 * O               3     -0.29598             -0.96720             -3.13672         *
 * Si              1      0.40427             -2.07358             -1.53909         *
 *                                                                                  *
 ************************************************************************************
  
 +------------+-------------+-------------+-----------------+ <-- min LBFGS
 |    Step    |   lambda    |   F.delta'  |    enthalpy     | <-- min LBFGS
 +------------+-------------+-------------+-----------------+ <-- min LBFGS
 |  previous  |    0.000000 |    1.801493 |    -3191.040020 | <-- min LBFGS
 | trial step |    0.996653 |   -3.351606 |    -3190.304354 | <-- min LBFGS
 +------------+-------------+-------------+-----------------+ <-- min LBFGS
  

--------------------------------------------------------------------------------
 LBFGS: improving iteration         1 with line minimization (lambda=  0.348424)
--------------------------------------------------------------------------------
 
                           -------------------------------
                                     Cell Contents
                           -------------------------------
 
            xxxxxxxxxxxxxxxxxxxxxxxxxxxxxxxxxxxxxxxxxxxxxxxxxxxxxxxxxxxxxxxxx
            x  Element         Atom        Fractional coordinates of atoms  x
            x                 Number           u          v          w      x
            x---------------------------------------------------------------x
            x  H                 1         0.563743   0.466268   0.543806   x
            x  H                 2         0.618825   0.541476   0.555860   x
            x  H                 3         0.454012   0.466347   0.589245   x
            x  H                 4         0.510159   0.540416   0.601424   x
            x  H                 5         0.436624   0.602794   0.502641   x
            x  H                 6         0.564392   0.599754   0.511887   x
            x  H                 7         0.442744   0.484764   0.486016   x
            x  H                 8         0.571553   0.482311   0.494238   x
            x  H                 9         0.601024   0.575672   0.458572   x
            x  H                10         0.473223   0.577012   0.449805   x
            x  H                11         0.677295   0.403874   0.423406   x
            x  H                12         0.592016   0.491385   0.377659   x
            x  H                13         0.451984   0.405013   0.407160   x
            x  H                14         0.405703   0.521280   0.540684   x
            x  H                15         0.453766   0.590774   0.553730   x
            x  H                16         0.618601   0.409582   0.592334   x
            x  H                17         0.674908   0.483162   0.604297   x
            x  H                18         0.637246   0.410321   0.647369   x
            x  H                19         0.509549   0.410020   0.638034   x
            x  H                20         0.567422   0.483652   0.650072   x
            x  C                 1         0.551426   0.510904   0.556962   x
            x  C                 2         0.523557   0.494860   0.588839   x
            x  C                 3         0.496387   0.570412   0.510043   x
            x  C                 4         0.510433   0.514885   0.487721   x
            x  C                 5         0.534220   0.544605   0.456947   x
            x  C                 6         0.604910   0.455382   0.604590   x
            x  C                 7         0.578099   0.439002   0.636782   x
            x  N                 1         0.469686   0.549163   0.541303   x
            x  O                 1         0.584976   0.518713   0.395720   x
            x  O                 2         0.453039   0.437520   0.423479   x
            x  O                 3         0.648856   0.433719   0.438475   x
            x  Si                1         0.555919   0.482093   0.427349   x
            xxxxxxxxxxxxxxxxxxxxxxxxxxxxxxxxxxxxxxxxxxxxxxxxxxxxxxxxxxxxxxxxx
 
 
------------------------------------------------------------------------ <-- SCF
SCF loop      Energy                           Energy gain       Timer   <-- SCF
                                               per atom          (sec)   <-- SCF
------------------------------------------------------------------------ <-- SCF
Initial  -3.21225518E+003                                        101.02  <-- SCF
      1  -3.18946147E+003                   -7.12303671E-001     101.85  <-- SCF
      2  -3.19077041E+003                    4.09043808E-002     103.06  <-- SCF
      3  -3.19031956E+003                   -1.40890932E-002     104.21  <-- SCF
      4  -3.19046179E+003                    4.44492884E-003     105.31  <-- SCF
      5  -3.19049783E+003                    1.12601330E-003     106.41  <-- SCF
      6  -3.19049865E+003                    2.56844515E-005     107.32  <-- SCF
      7  -3.19049931E+003                    2.07155179E-005     108.13  <-- SCF
      8  -3.19049984E+003                    1.64502633E-005     108.90  <-- SCF
      9  -3.19050046E+003                    1.96068775E-005     109.71  <-- SCF
     10  -3.19050097E+003                    1.59335340E-005     110.49  <-- SCF
     11  -3.19050136E+003                    1.19321731E-005     111.26  <-- SCF
     12  -3.19050187E+003                    1.61655113E-005     112.03  <-- SCF
     13  -3.19050202E+003                    4.58199111E-006     112.81  <-- SCF
     14  -3.19050229E+003                    8.58046361E-006     113.58  <-- SCF
     15  -3.19050239E+003                    3.11149773E-006     114.36  <-- SCF
     16  -3.19050253E+003                    4.39275916E-006     115.14  <-- SCF
     17  -3.19050256E+003                    8.55144190E-007     115.92  <-- SCF
     18  -3.19050263E+003                    2.13731509E-006     116.70  <-- SCF
     19  -3.19050265E+003                    7.45164405E-007     117.48  <-- SCF
     20  -3.19050268E+003                    9.46995520E-007     118.26  <-- SCF
------------------------------------------------------------------------ <-- SCF
 
Final energy =  -3190.502684234     eV
(energy not corrected for finite basis set)
 
(SEDC) Total Energy Correction : -0.741280E+00 eV

Dispersion corrected final energy* =  -3191.243964552     eV
 
 ************************************** Forces **************************************
 *                                                                                  *
 *                           Cartesian components (eV/A)                            *
 * -------------------------------------------------------------------------------- *
 *                         x                    y                    z              *
 *                                                                                  *
 * H               1     -0.03434              0.09770              0.02486         *
 * H               2     -0.14492             -0.05197             -0.06156         *
 * H               3     -0.03552              0.02866             -0.00679         *
 * H               4     -0.01981              0.02153             -0.02919         *
 * H               5     -0.11813              0.12262             -0.00436         *
 * H               6     -0.01404             -0.01376              0.06532         *
 * H               7     -0.03156              0.01785              0.05872         *
 * H               8      0.03249              0.00435              0.09641         *
 * H               9     -0.03793             -0.06677             -0.02742         *
 * H              10      0.04206             -0.02454             -0.02604         *
 * H              11     -0.33183              0.59100              0.69356         *
 * H              12     -0.13205              0.65205              0.75940         *
 * H              13     -0.04355              0.63101              0.73126         *
 * H              14      0.14027              0.08623              0.07701         *
 * H              15      0.02424             -0.40258             -0.13073         *
 * H              16      0.00935              0.01414             -0.06076         *
 * H              17     -0.01084              0.05766             -0.07785         *
 * H              18     -0.00107              0.02519             -0.03113         *
 * H              19     -0.01460              0.00927             -0.03173         *
 * H              20     -0.02977              0.02806             -0.02256         *
 * C               1     -0.01144             -0.03498              0.06917         *
 * C               2     -0.06195             -0.01985              0.10037         *
 * C               3      0.06667              0.05708             -0.30407         *
 * C               4     -0.00468             -0.03534             -0.08578         *
 * C               5     -0.05047              0.10825              0.20257         *
 * C               6      0.05489             -0.06203              0.08796         *
 * C               7     -0.03640              0.03210              0.00857         *
 * N               1      0.31607             -0.05240              0.01654         *
 * O               1      0.04209             -0.42858             -0.44383         *
 * O               2      0.15145             -0.25779             -0.39364         *
 * O               3      0.07590             -0.17335             -0.41289         *
 * Si              1      0.20942             -0.96079             -0.84139         *
 *                                                                                  *
 ************************************************************************************
  
 +------------+-------------+-------------+-----------------+ <-- min LBFGS
 |    Step    |   lambda    |   F.delta'  |    enthalpy     | <-- min LBFGS
 +------------+-------------+-------------+-----------------+ <-- min LBFGS
 |  previous  |    0.000000 |    1.801493 |    -3191.040020 | <-- min LBFGS
 | trial step |    0.996653 |   -3.351606 |    -3190.304354 | <-- min LBFGS
 |  line step |    0.348424 |   -0.246746 |    -3191.243965 | <-- min LBFGS
 +------------+-------------+-------------+-----------------+ <-- min LBFGS
  
 LBFGS: finished iteration     1 with enthalpy= -3.19124396E+003 eV
  
 +-----------+-----------------+-----------------+------------+-----+ <-- LBFGS
 | Parameter |      value      |    tolerance    |    units   | OK? | <-- LBFGS
 +-----------+-----------------+-----------------+------------+-----+ <-- LBFGS
 |  dE/ion   |   6.373265E-003 |   2.000000E-005 |         eV | No  | <-- LBFGS
 |  |F|max   |   1.294180E+000 |   5.000000E-002 |       eV/A | No  | <-- LBFGS
 |  |dR|max  |   9.249860E-002 |   2.000000E-003 |          A | No  | <-- LBFGS
 +-----------+-----------------+-----------------+------------+-----+ <-- LBFGS
  

================================================================================
 Starting LBFGS iteration          2 ...
================================================================================
  
 +------------+-------------+-------------+-----------------+ <-- min LBFGS
 |    Step    |   lambda    |   F.delta'  |    enthalpy     | <-- min LBFGS
 +------------+-------------+-------------+-----------------+ <-- min LBFGS
 |  previous  |    0.000000 |    0.848617 |    -3191.243965 | <-- min LBFGS
 +------------+-------------+-------------+-----------------+ <-- min LBFGS
  

--------------------------------------------------------------------------------
 LBFGS: starting iteration         2 with trial guess (lambda=  1.000000)
--------------------------------------------------------------------------------
 
                           -------------------------------
                                     Cell Contents
                           -------------------------------
 
            xxxxxxxxxxxxxxxxxxxxxxxxxxxxxxxxxxxxxxxxxxxxxxxxxxxxxxxxxxxxxxxxx
            x  Element         Atom        Fractional coordinates of atoms  x
            x                 Number           u          v          w      x
            x---------------------------------------------------------------x
            x  H                 1         0.563404   0.465492   0.543314   x
            x  H                 2         0.617769   0.539881   0.555129   x
            x  H                 3         0.453597   0.465484   0.588571   x
            x  H                 4         0.509829   0.539440   0.600717   x
            x  H                 5         0.437765   0.601775   0.501891   x
            x  H                 6         0.565194   0.598283   0.511294   x
            x  H                 7         0.443446   0.483616   0.485886   x
            x  H                 8         0.572365   0.481216   0.494157   x
            x  H                 9         0.601406   0.574389   0.458360   x
            x  H                10         0.474261   0.575899   0.449600   x
            x  H                11         0.676312   0.408809   0.426827   x
            x  H                12         0.590754   0.498200   0.379885   x
            x  H                13         0.448744   0.409801   0.410317   x
            x  H                14         0.407596   0.518771   0.540168   x
            x  H                15         0.455924   0.587868   0.553109   x
            x  H                16         0.618253   0.409261   0.591461   x
            x  H                17         0.674242   0.482772   0.603348   x
            x  H                18         0.636167   0.410454   0.646396   x
            x  H                19         0.508818   0.409996   0.637121   x
            x  H                20         0.566415   0.483506   0.649160   x
            x  C                 1         0.551022   0.509405   0.556516   x
            x  C                 2         0.523151   0.493838   0.588256   x
            x  C                 3         0.497667   0.569455   0.508958   x
            x  C                 4         0.511338   0.513423   0.487429   x
            x  C                 5         0.534798   0.543623   0.456880   x
            x  C                 6         0.604829   0.454701   0.603846   x
            x  C                 7         0.577094   0.438910   0.635969   x
            x  N                 1         0.473864   0.546217   0.540514   x
            x  O                 1         0.584572   0.523854   0.397052   x
            x  O                 2         0.449844   0.440744   0.425884   x
            x  O                 3         0.649226   0.437149   0.441236   x
            x  Si                1         0.556626   0.480902   0.427191   x
            xxxxxxxxxxxxxxxxxxxxxxxxxxxxxxxxxxxxxxxxxxxxxxxxxxxxxxxxxxxxxxxxx
 
 
------------------------------------------------------------------------ <-- SCF
SCF loop      Energy                           Energy gain       Timer   <-- SCF
                                               per atom          (sec)   <-- SCF
------------------------------------------------------------------------ <-- SCF
Initial  -3.21654222E+003                                        119.69  <-- SCF
      1  -3.18946054E+003                   -8.46302264E-001     120.57  <-- SCF
      2  -3.19040218E+003                    2.94262464E-002     121.83  <-- SCF
      3  -3.19019161E+003                   -6.58030839E-003     122.84  <-- SCF
      4  -3.19034337E+003                    4.74245928E-003     123.85  <-- SCF
      5  -3.19034692E+003                    1.10961662E-004     125.03  <-- SCF
      6  -3.19034756E+003                    2.00272727E-005     126.02  <-- SCF
      7  -3.19034704E+003                   -1.62296081E-005     126.90  <-- SCF
      8  -3.19034609E+003                   -2.99585012E-005     127.81  <-- SCF
      9  -3.19034563E+003                   -1.41651507E-005     128.62  <-- SCF
     10  -3.19034563E+003                   -1.84299817E-009     129.42  <-- SCF
     11  -3.19034584E+003                    6.55399741E-006     130.23  <-- SCF
     12  -3.19034609E+003                    7.65100490E-006     131.00  <-- SCF
     13  -3.19034659E+003                    1.57117346E-005     131.78  <-- SCF
     14  -3.19034690E+003                    9.68080950E-006     132.56  <-- SCF
     15  -3.19034733E+003                    1.35142910E-005     133.33  <-- SCF
     16  -3.19034761E+003                    8.73367845E-006     134.13  <-- SCF
     17  -3.19034788E+003                    8.38256081E-006     134.94  <-- SCF
     18  -3.19034809E+003                    6.40092454E-006     135.73  <-- SCF
     19  -3.19034817E+003                    2.60385580E-006     136.51  <-- SCF
     20  -3.19034826E+003                    2.80657603E-006     137.29  <-- SCF
     21  -3.19034830E+003                    1.40049739E-006     138.08  <-- SCF
     22  -3.19034833E+003                    8.26781266E-007     138.86  <-- SCF
     23  -3.19034833E+003                   -8.76779504E-008     139.65  <-- SCF
------------------------------------------------------------------------ <-- SCF
 
Final energy =  -3190.348326613     eV
(energy not corrected for finite basis set)
 
(SEDC) Total Energy Correction : -0.752964E+00 eV

Dispersion corrected final energy* =  -3191.101290143     eV
 
 ************************************** Forces **************************************
 *                                                                                  *
 *                           Cartesian components (eV/A)                            *
 * -------------------------------------------------------------------------------- *
 *                         x                    y                    z              *
 *                                                                                  *
 * H               1      0.16599             -0.34547             -0.02353         *
 * H               2      0.20035             -0.02724              0.09746         *
 * H               3     -0.07289             -0.02415              0.05762         *
 * H               4     -0.03889              0.07846              0.00245         *
 * H               5     -0.25290              0.13321              0.04496         *
 * H               6      0.24738              0.14406             -0.04377         *
[...]
 * H              17     -0.00152              0.00115             -0.00035         *
 * H              18      0.00147             -0.00210             -0.00156         *
 * H              19      0.00327              0.00334              0.00120         *
 * H              20      0.00262             -0.00369             -0.00113         *
 * C               1     -0.00266             -0.00115              0.00487         *
 * C               2      0.00179              0.00434             -0.00548         *
 * C               3      0.00648              0.00360              0.00297         *
 * C               4     -0.00377             -0.00679              0.00303         *
 * C               5      0.00059             -0.00176             -0.00118         *
 * C               6      0.00406             -0.00377              0.00314         *
 * C               7     -0.00533              0.00154              0.00134         *
 * N               1      0.00045             -0.00697             -0.00438         *
 * O               1      0.00013             -0.00352              0.00278         *
 * O               2     -0.00880             -0.00834             -0.00221         *
 * O               3     -0.00464              0.00093              0.00192         *
 * Si              1      0.00613              0.00312              0.00073         *
 *                                                                                  *
 ************************************************************************************
 
 Pseudo atomic calculation performed for H 1s1
 
 Converged in 13 iterations to a total energy of -12.4790 eV
 
 Pseudo atomic calculation performed for C 2s2 2p2
 
 Converged in 17 iterations to a total energy of -148.5208 eV
 
 Pseudo atomic calculation performed for N 2s2 2p3
 
 Converged in 21 iterations to a total energy of -268.1820 eV
 
 Pseudo atomic calculation performed for O 2s2 2p4
 
 Converged in 23 iterations to a total energy of -432.6536 eV
 
 Pseudo atomic calculation performed for Si 3s2 3p2
 
 Converged in 11 iterations to a total energy of -165.0683 eV
Charge spilling parameter for spin component 1 = 1.55%
 
            Orbital Populations       
     Ion    Atom   Orbital             Charge
  -------------------------------------------
      H     1      S                    0.688
      H     2      S                    0.688
      H     3      S                    0.732
      H     4      S                    0.732
      H     5      S                    0.684
      H     6      S                    0.687
      H     7      S                    0.730
      H     8      S                    0.725
      H     9      S                    0.723
      H    10      S                    0.725
      H    11      S                    0.462
      H    12      S                    0.455
      H    13      S                    0.465
      H    14      S                    0.510
      H    15      S                    0.504
      H    16      S                    0.727
      H    17      S                    0.728
      H    18      S                    0.700
      H    19      S                    0.727
      H    20      S                    0.726
      C     1      S                    1.299
      C     1      Px                   0.968
      C     1      Py                   1.130
      C     1      Pz                   1.003
      C     2      S                    1.298
      C     2      Px                   1.115
      C     2      Py                   1.158
      C     2      Pz                   0.951
      C     3      S                    1.311
      C     3      Px                   1.238
      C     3      Py                   1.099
      C     3      Pz                   0.765
      C     4      S                    1.290
      C     4      Px                   1.207
      C     4      Py                   1.048
      C     4      Pz                   0.974
      C     5      S                    1.406
      C     5      Px                   1.230
      C     5      Py                   1.254
      C     5      Pz                   1.069
      C     6      S                    1.305
      C     6      Px                   1.062
      C     6      Py                   1.131
      C     6      Pz                   1.014
      C     7      S                    1.400
      C     7      Px                   1.200
      C     7      Py                   1.198
      C     7      Pz                   0.997
      N     1      S                    1.590
      N     1      Px                   1.357
      N     1      Py                   1.389
      N     1      Pz                   1.303
      O     1      S                    1.854
      O     1      Px                   1.810
      O     1      Py                   1.853
      O     1      Pz                   1.580
      O     2      S                    1.857
      O     2      Px                   1.778
      O     2      Py                   1.645
      O     2      Pz                   1.820
      O     3      S                    1.857
      O     3      Px                   1.657
      O     3      Py                   1.782
      O     3      Pz                   1.815
     Si     1      S                    0.716
     Si     1      Px                   0.290
     Si     1      Py                   0.430
     Si     1      Pz                   0.380
  -------------------------------------------
                           Total:      74.000
  -------------------------------------------
 
     Atomic Populations (Mulliken)
     -----------------------------
Species          Ion     s       p       d       f      Total   Charge (e)
==========================================================================
  H               1     0.688   0.000   0.000   0.000   0.688     0.312
  H               2     0.688   0.000   0.000   0.000   0.688     0.312
  H               3     0.732   0.000   0.000   0.000   0.732     0.268
  H               4     0.732   0.000   0.000   0.000   0.732     0.268
  H               5     0.684   0.000   0.000   0.000   0.684     0.316
  H               6     0.687   0.000   0.000   0.000   0.687     0.313
  H               7     0.730   0.000   0.000   0.000   0.730     0.270
  H               8     0.725   0.000   0.000   0.000   0.725     0.275
  H               9     0.723   0.000   0.000   0.000   0.723     0.277
  H              10     0.725   0.000   0.000   0.000   0.725     0.275
  H              11     0.462   0.000   0.000   0.000   0.462     0.538
  H              12     0.455   0.000   0.000   0.000   0.455     0.545
  H              13     0.465   0.000   0.000   0.000   0.465     0.535
  H              14     0.510   0.000   0.000   0.000   0.510     0.490
  H              15     0.504   0.000   0.000   0.000   0.504     0.496
  H              16     0.727   0.000   0.000   0.000   0.727     0.273
  H              17     0.728   0.000   0.000   0.000   0.728     0.272
  H              18     0.700   0.000   0.000   0.000   0.700     0.300
  H              19     0.727   0.000   0.000   0.000   0.727     0.273
  H              20     0.726   0.000   0.000   0.000   0.726     0.274
  C               1     1.299   3.102   0.000   0.000   4.401    -0.401
  C               2     1.298   3.224   0.000   0.000   4.522    -0.522
  C               3     1.311   3.102   0.000   0.000   4.413    -0.413
  C               4     1.290   3.229   0.000   0.000   4.519    -0.519
  C               5     1.406   3.553   0.000   0.000   4.960    -0.960
  C               6     1.305   3.207   0.000   0.000   4.512    -0.512
  C               7     1.400   3.396   0.000   0.000   4.796    -0.796
  N               1     1.590   4.050   0.000   0.000   5.640    -0.640
  O               1     1.854   5.242   0.000   0.000   7.097    -1.097
  O               2     1.857   5.243   0.000   0.000   7.100    -1.100
  O               3     1.857   5.254   0.000   0.000   7.111    -1.111
  Si              1     0.716   1.099   0.000   0.000   1.815     2.185
==========================================================================
 
                 Bond                   Population      Length (A)
======================================================================
              H 12 -- O 1                    0.53        0.96780
              H 13 -- O 2                    0.53        0.96929
              H 11 -- O 3                    0.53        0.96954
              H 15 -- N 1                    0.67        1.02924
              H 14 -- N 1                    0.67        1.02994
              H 1  -- C 1                    0.86        1.09639
              H 18 -- C 7                    0.81        1.09735
              H 2  -- C 1                    0.85        1.09794
              H 6  -- C 3                    0.85        1.09827
              H 5  -- C 3                    0.85        1.09862
              H 19 -- C 7                    0.81        1.09901
              H 20 -- C 7                    0.81        1.09952
              H 8  -- C 4                    0.86        1.09977
              H 16 -- C 6                    0.84        1.10145
              H 17 -- C 6                    0.84        1.10146
              H 9  -- C 5                    0.83        1.10215
              H 10 -- C 5                    0.82        1.10227
              H 7  -- C 4                    0.84        1.10355
              H 4  -- C 2                    0.85        1.10371
              H 3  -- C 2                    0.84        1.10406
               C 1 -- N 1                    0.51        1.51283
               C 1 -- C 2                    0.71        1.52023
               C 3 -- C 4                    0.71        1.52055
               C 3 -- N 1                    0.49        1.52278
               C 6 -- C 7                    0.65        1.52760
               C 2 -- C 6                    0.68        1.53266
               C 4 -- C 5                    0.66        1.53883
               O 1 -- Si 1                   0.51        1.64270
              H 14 -- H 15                  -0.11        1.64747
               O 2 -- Si 1                   0.50        1.64780
               O 3 -- Si 1                   0.49        1.64997
              H 16 -- H 17                  -0.12        1.76656
              H 7  -- H 8                   -0.11        1.77238
              H 18 -- H 19                  -0.10        1.77410
              H 3  -- H 4                   -0.12        1.77438
              H 9  -- H 10                  -0.10        1.77500
              H 18 -- H 20                  -0.10        1.77554
              H 19 -- H 20                  -0.11        1.77661
              H 1  -- H 2                   -0.11        1.78061
              H 5  -- H 6                   -0.11        1.78213
               C 5 -- Si 1                   0.57        1.88040
              H 14 -- C 1                   -0.13        2.07673
              H 15 -- C 1                   -0.13        2.08019
              H 14 -- C 3                   -0.12        2.09068
              H 15 -- C 3                   -0.13        2.09896
              H 2  -- N 1                   -0.11        2.10554
              H 1  -- N 1                   -0.11        2.10791
              H 5  -- N 1                   -0.12        2.10796
              H 6  -- N 1                   -0.11        2.11194
              H 17 -- C 2                   -0.14        2.15766
              H 4  -- C 1                   -0.14        2.15834
              H 7  -- C 3                   -0.14        2.15881
              H 16 -- C 2                   -0.13        2.16106
              H 4  -- C 6                   -0.12        2.16179
              H 17 -- C 7                   -0.13        2.16495
              H 3  -- C 1                   -0.13        2.16556
              H 8  -- C 5                   -0.13        2.16665
              H 3  -- C 6                   -0.12        2.16755
              H 16 -- C 7                   -0.13        2.16822
              H 8  -- C 3                   -0.13        2.17097
              H 5  -- C 4                   -0.13        2.17158
              H 7  -- C 5                   -0.12        2.17168
              H 18 -- C 6                   -0.12        2.17419
              H 10 -- C 4                   -0.12        2.18026
              H 20 -- C 6                   -0.12        2.18110
              H 2  -- C 2                   -0.12        2.18189
              H 19 -- C 6                   -0.12        2.18191
              H 9  -- C 4                   -0.12        2.18320
              H 6  -- C 4                   -0.12        2.18484
              H 1  -- C 2                   -0.12        2.18556
              H 11 -- Si 1                  -0.14        2.25210
              H 1  -- H 8                   -0.04        2.27611
              H 13 -- Si 1                  -0.14        2.28370
              H 12 -- Si 1                  -0.13        2.28953
              H 5  -- H 15                  -0.04        2.31833
              H 1  -- H 14                  -0.04        2.36882
              H 5  -- H 14                  -0.02        2.42425
              H 6  -- H 15                  -0.02        2.43708
              H 4  -- H 15                  -0.01        2.43719
              H 2  -- H 15                  -0.03        2.44670
              H 2  -- H 6                   -0.02        2.45608
              H 10 -- Si 1                  -0.12        2.46392
              H 9  -- Si 1                  -0.12        2.46422
              H 7  -- H 14                  -0.00        2.48260
               C 2 -- N 1                   -0.14        2.49648
              H 17 -- H 18                  -0.03        2.49895
              H 4  -- H 17                  -0.03        2.50334
              H 3  -- H 14                  -0.01        2.50586
              H 2  -- H 4                   -0.04        2.50751
              H 16 -- H 18                  -0.03        2.50953
              H 7  -- H 10                  -0.03        2.51139
               C 3 -- C 5                   -0.15        2.51224
              H 3  -- H 16                  -0.03        2.51531
               C 1 -- C 6                   -0.15        2.52048
              H 6  -- H 8                   -0.04        2.52455
              H 5  -- H 7                   -0.03        2.52794
              H 16 -- H 19                  -0.03        2.52903
              H 17 -- H 20                  -0.03        2.53110
               C 4 -- N 1                   -0.13        2.53561
               C 2 -- C 7                   -0.15        2.53908
              H 8  -- H 9                   -0.03        2.54022
              H 5  -- H 10                  -0.01        2.54620
              H 1  -- H 3                   -0.03        2.54861
              H 1  -- H 16                  -0.01        2.56286
              H 4  -- H 20                  -0.01        2.56970
              H 2  -- H 17                  -0.01        2.57649
               C 1 -- C 3                   -0.12        2.57759
              H 3  -- H 19                  -0.01        2.59516
              H 6  -- H 9                   -0.01        2.59554
              H 15 -- C 2                   -0.04        2.62387
               O 1 -- O 3                   -0.08        2.63223
              H 11 -- O 1                   -0.01        2.66117
              H 8  -- O 3                    0.00        2.68818
              H 14 -- C 4                   -0.04        2.69999
              H 14 -- C 2                   -0.03        2.71166
              H 3  -- N 1                   -0.03        2.72369
              H 2  -- C 3                   -0.04        2.73204
              H 17 -- C 1                   -0.04        2.73374
              H 16 -- C 1                   -0.04        2.74383
              H 4  -- N 1                   -0.03        2.74543
              H 9  -- C 3                   -0.04        2.74559
              H 5  -- C 5                   -0.04        2.74831
              H 7  -- N 1                   -0.03        2.75188
               O 2 -- O 3                   -0.07        2.75591
              H 6  -- C 1                   -0.04        2.75779
               C 5 -- O 2                   -0.11        2.75996
               O 1 -- O 2                   -0.07        2.76029
              H 4  -- C 7                   -0.04        2.76272
              H 10 -- C 3                   -0.04        2.76747
              H 3  -- C 7                   -0.04        2.77179
              H 1  -- C 6                   -0.03        2.79387
              H 20 -- C 2                   -0.04        2.80068
              H 6  -- C 5                   -0.03        2.81384
              H 1  -- C 3                   -0.02        2.81384
              H 19 -- C 2                   -0.04        2.81462
              H 2  -- C 6                   -0.03        2.81612
              H 8  -- N 1                   -0.01        2.82105
               C 5 -- O 3                   -0.10        2.82372
              H 1  -- C 4                   -0.02        2.83453
               C 4 -- Si 1                  -0.15        2.83586
              H 10 -- O 2                   -0.01        2.87760
              H 8  -- C 1                   -0.03        2.88917
              H 3  -- H 15                  -0.00        2.90829
              H 7  -- O 2                    0.00        2.92535
              H 12 -- O 2                   -0.01        2.93623
              H 2  -- H 14                   0.03        2.95121
              H 1  -- H 15                   0.03        2.95395
              H 6  -- H 14                   0.03        2.96173
               C 5 -- O 1                   -0.08        2.96425
              H 8  -- Si 1                  -0.06        2.97671
======================================================================
 
 
     Hirshfeld Analysis
     ------------------
Species   Ion     Hirshfeld Charge (e)
======================================
  H        1                 0.07
  H        2                 0.07
  H        3                 0.05
  H        4                 0.05
  H        5                 0.07
  H        6                 0.07
  H        7                 0.05
  H        8                 0.04
  H        9                 0.05
  H       10                 0.05
  H       11                 0.17
  H       12                 0.18
  H       13                 0.17
  H       14                 0.18
  H       15                 0.18
  H       16                 0.05
  H       17                 0.04
  H       18                 0.06
  H       19                 0.05
  H       20                 0.05
  C        1                 0.01
  C        2                -0.06
  C        3                 0.01
  C        4                -0.06
  C        5                -0.14
  C        6                -0.05
  C        7                -0.10
  N        1                 0.03
  O        1                -0.28
  O        2                -0.28
  O        3                -0.29
  Si       1                 0.48
======================================
 

Writing analysis data to Conf_0012.castep_bin

Writing model to Conf_0012.check
 
 A BibTeX formatted list of references used in this run has been written to 
 Conf_0012.bib
 
Initialisation time =     24.81 s
Calculation time    =   1278.24 s
Finalisation time   =      1.15 s
Total time          =   1304.20 s
Peak Memory Use     = 7923792 kB
 
Overall parallel efficiency rating: Satisfactory (67%)
 
Data was distributed by:-
G-vector (48-way); efficiency rating: Satisfactory (67%)
High Water Mark     = 1911784 kB
