 Job started on host drago31060180.mgmt.cc.csic.es
 at Sun Mar 31 01:21:41 2024

 +-------------------------------------------------+
 |                                                 |
 |      CCC   AA    SSS  TTTTT  EEEEE  PPPP        |
 |     C     A  A  S       T    E      P   P       |
 |     C     AAAA   SS     T    EEE    PPPP        |
 |     C     A  A     S    T    E      P           |
 |      CCC  A  A  SSS     T    EEEEE  P           |
 |                                                 |
 +-------------------------------------------------+
 |                                                 |
 | Materials Studio CASTEP version 2024            |
 | Ab Initio Total Energy Program                  |
 |                                                 |
 | Authors:                                        |
 | M. Segall, M. Probert, C. Pickard, P. Hasnip,   |
 | S. Clark, K. Refson, J. R. Yates,               |
 | A. Bartok-Partay, M. Payne                      |
 |                                                 |
 | Contributors:                                   |
 | P. Lindan, P. Haynes, J. White, V. Milman,      |
 | N. Govind, M. Gibson, P. Tulip, V. Cocula,      |
 | B. Montanari, D. Quigley, M. Glover,            |
 | L. Bernasconi, A. Perlov, M. Plummer,           |
 | E. McNellis, J. Meyer, J. Gale, D. Jochym       |
 | J. Aarons, B. Walker, R. Gillen, D. Jones       |
 | T. Green, I. J. Bush, C. J. Armstrong,          |
 | E. J. Higgins, E. L. Brown, M. S. McFly,        |
 | J. Wilkins, B-C. Shih, P. J. P. Byrne,          |
 | R. J. Maurer, J. C. Womack, J. Dziedzic,        |
 | L. LeBlanc, T. K. Stenczel, J. Kermode,         |
 | S. Sturniolo, B. Shi, B. Durham, M. Evans,      |
 | M. J. Smith, A. Tamerus, Z. Hawkhead,           |
 | V. Ravindran, T. Hollins, S. A. Joyce,          |
 | R. T. Strong, A. M. Reilly                      |
 |                                                 |
 | Copyright (c) 2000 - 2023                       |
 |                                                 |
 | Please cite                                     |
 |                                                 |
 |     "First principles methods using CASTEP"     |
 |                                                 |
 |         Zeitschrift fuer Kristallographie       |
 |           220(5-6) pp. 567-570 (2005)           |
 |                                                 |
 | S. J. Clark, M. D. Segall, C. J. Pickard,       |
 | P. J. Hasnip, M. J. Probert, K. Refson,         |
 | M. C. Payne                                     |
 |                                                 |
 |       in all publications arising from          |
 |              your use of CASTEP                 |
 |                                                 |
 +-------------------------------------------------+
 |                                                 |
 |              http://www.castep.org              |
 |                                                 |
 +-------------------------------------------------+
 
 
 This version was compiled for x86_64-rhel7-intel19.0 on Oct 24 2023
 Code version:    a9f326b
 Intel(R) Math Kernel Library Version 2019.0.4 
 Fundamental constants values: CODATA 2018
 
License checkout of MS_castep successful
 
 
 Atomic calculation performed for H: 1s1
 
 Converged in 41 iterations to an ae energy of -12.488 eV
 
 Identity difference: 2.63E-05
 
   ============================================================                
   | Pseudopotential Report - Date of generation 31-03-2024   |                
   ------------------------------------------------------------                
   | Element: H Ionic charge:  1.00 Level of theory: PBE      |                
   | Atomic Solver: Koelling-Harmon                           |                
   |                                                          |                
   |               Reference Electronic Structure             |                
   |         Orbital         Occupation         Energy        |                
   |            1s              1.000           -0.239        |                
   |                                                          |                
   |                 Pseudopotential Definition               |                
   |        Beta     l      e      Rc     scheme   norm       |                
   |          1      0   -0.239   0.599     qc      0         |                
   |          2      0    0.250   0.599     qc      0         |                
   |         loc     1    0.000   0.599     pn      0         |                
   |                                                          |                
   | Augmentation charge Rinner = 0.421                       |                
   | No partial core correction                               |                
   ------------------------------------------------------------                
   | "1|0.6|9|10|15|10UU(qc=8)[]"                             |                
   ------------------------------------------------------------                
   |      Author: Chris J. Pickard, Cambridge University      |                
   ============================================================                
 
 Doing a self consistent calculation for the test configuration
 
 Atomic calculation performed for H: 1s1
 
 Converged in 41 iterations to an ae energy of -12.488 eV
 
 ---------------------------------------
 AE eigenvalue nl 10 =       -0.23860176
 ---------------------------------------
 PS eigenvalue nl 10 =       -0.23857601
 ---------------------------------------
 Maximum eigenvalue error:   2.57E-05
 
 Derived cutoff energies: C=   1 M=   6 F=  10 E=  20
 
 Checking for ghost states up to   1.51185 Ha
 
 No Ghost States Identified
 
 ***************************************
 
 Atomic calculation performed for C: 1s2 2s2 2p2
 
 Converged in 54 iterations to an ae energy of -1027.632 eV
 
 Identity difference: 2.37E-04
 
   ============================================================                
   | Pseudopotential Report - Date of generation 31-03-2024   |                
   ------------------------------------------------------------                
   | Element: C Ionic charge:  4.00 Level of theory: PBE      |                
   | Atomic Solver: Koelling-Harmon                           |                
   |                                                          |                
   |               Reference Electronic Structure             |                
   |         Orbital         Occupation         Energy        |                
   |            2s              2.000           -0.505        |                
   |            2p              2.000           -0.194        |                
   |                                                          |                
   |                 Pseudopotential Definition               |                
   |        Beta     l      e      Rc     scheme   norm       |                
   |          1      0   -0.505   1.395     qc      0         |                
   |          2      0    0.250   1.395     qc      0         |                
   |          3      1   -0.194   1.395     qc      0         |                
   |          4      1    0.250   1.395     qc      0         |                
   |         loc     2    0.000   1.395     pn      0         |                
   |                                                          |                
   | Augmentation charge Rinner = 0.983                       |                
   | Partial core correction Rc = 0.983                       |                
   ------------------------------------------------------------                
   | "2|1.4|11|12|14.7|20UU:21UU(qc=7)[]"                     |                
   ------------------------------------------------------------                
   |      Author: Chris J. Pickard, Cambridge University      |                
   ============================================================                
 
 Doing a self consistent calculation for the test configuration
 
 Atomic calculation performed for C: 1s2 2s2 2p2
 
 Converged in 54 iterations to an ae energy of -1027.632 eV
 
 ---------------------------------------
 AE eigenvalue nl 10 =      -10.04653081
 AE eigenvalue nl 20 =       -0.50533429
 AE eigenvalue nl 21 =       -0.19423807
 ---------------------------------------
 PS eigenvalue nl 20 =       -0.50531853
 PS eigenvalue nl 21 =       -0.19422214
 ---------------------------------------
 Maximum eigenvalue error:   1.59E-05
 
 Derived cutoff energies: C=   6 M=  10 F=  12 E=  16
 
 Checking for ghost states up to   1.47183 Ha
 
 No Ghost States Identified
 
 ***************************************
 
 Atomic calculation performed for N: 1s2 2s2 2p3
 
 Converged in 55 iterations to an ae energy of -1481.742 eV
 
 Identity difference: 2.27E-04
 
   ============================================================                
   | Pseudopotential Report - Date of generation 31-03-2024   |                
   ------------------------------------------------------------                
   | Element: N Ionic charge:  5.00 Level of theory: PBE      |                
   | Atomic Solver: Koelling-Harmon                           |                
   |                                                          |                
   |               Reference Electronic Structure             |                
   |         Orbital         Occupation         Energy        |                
   |            2s              2.000           -0.683        |                
   |            2p              3.000           -0.261        |                
   |                                                          |                
   |                 Pseudopotential Definition               |                
   |        Beta     l      e      Rc     scheme   norm       |                
   |          1      0   -0.683   1.100     qc      0         |                
   |          2      0    0.250   1.100     qc      0         |                
   |          3      1   -0.261   1.100     qc      0         |                
   |          4      1    0.250   1.100     qc      0         |                
   |         loc     2    0.000   1.100     pn      0         |                
   |                                                          |                
   | Augmentation charge Rinner = 0.769                       |                
   | Partial core correction Rc = 0.769                       |                
   ------------------------------------------------------------                
   | "2|1.1|12|16|19|20UU:21UU(qc=7)[]"                       |                
   ------------------------------------------------------------                
   |      Author: Chris J. Pickard, Cambridge University      |                
   ============================================================                
 
 Doing a self consistent calculation for the test configuration
 
 Atomic calculation performed for N: 1s2 2s2 2p3
 
 Converged in 55 iterations to an ae energy of -1481.742 eV
 
 ---------------------------------------
 AE eigenvalue nl 10 =      -14.13820921
 AE eigenvalue nl 20 =       -0.68290611
 AE eigenvalue nl 21 =       -0.26054797
 ---------------------------------------
 PS eigenvalue nl 20 =       -0.68291221
 PS eigenvalue nl 21 =       -0.26051708
 ---------------------------------------
 Maximum eigenvalue error:   3.09E-05
 
 Derived cutoff energies: C=  10 M=  15 F=  18 E=  23
 
 Checking for ghost states up to   1.48495 Ha
 
 No Ghost States Identified
 
 ***************************************
 
 Atomic calculation performed for O: 1s2 2s2 2p4
 
 Converged in 61 iterations to an ae energy of -2040.902 eV
 
 Identity difference: 4.10E-04
 
   ============================================================                
   | Pseudopotential Report - Date of generation 31-03-2024   |                
   ------------------------------------------------------------                
   | Element: O Ionic charge:  6.00 Level of theory: PBE      |                
   | Atomic Solver: Koelling-Harmon                           |                
   |                                                          |                
   |               Reference Electronic Structure             |                
   |         Orbital         Occupation         Energy        |                
   |            2s              2.000           -0.881        |                
   |            2p              4.000           -0.332        |                
   |                                                          |                
   |                 Pseudopotential Definition               |                
   |        Beta     l      e      Rc     scheme   norm       |                
   |          1      0   -0.881   1.100     qc      0         |                
   |          2      0    0.250   1.100     qc      0         |                
   |          3      1   -0.332   1.100     qc      0         |                
   |          4      1    0.250   1.100     qc      0         |                
   |         loc     2    0.000   1.100     pn      0         |                
   |                                                          |                
   | Augmentation charge Rinner = 0.769                       |                
   | Partial core correction Rc = 0.769                       |                
   ------------------------------------------------------------                
   | "2|1.1|14|18|21|20UU:21UU(qc=7)[]"                       |                
   ------------------------------------------------------------                
   |      Author: Chris J. Pickard, Cambridge University      |                
   ============================================================                
 
 Doing a self consistent calculation for the test configuration
 
 Atomic calculation performed for O: 1s2 2s2 2p4
 
 Converged in 61 iterations to an ae energy of -2040.902 eV
 
 ---------------------------------------
 AE eigenvalue nl 10 =      -18.91475256
 AE eigenvalue nl 20 =       -0.88057101
 AE eigenvalue nl 21 =       -0.33186952
 ---------------------------------------
 PS eigenvalue nl 20 =       -0.88059206
 PS eigenvalue nl 21 =       -0.33182157
 ---------------------------------------
 Maximum eigenvalue error:   4.80E-05
 
 Derived cutoff energies: C=  14 M=  17 F=  20 E=  22
 
 Checking for ghost states up to   1.49452 Ha
 
 No Ghost States Identified
 
 ***************************************
 
 Atomic calculation performed for Si: 1s2 2s2 2p6 3s2 3p2
 
 Converged in 54 iterations to an ae energy of -7886.857 eV
 
 Identity difference: 1.35E-04
 
   ============================================================                
   | Pseudopotential Report - Date of generation 31-03-2024   |                
   ------------------------------------------------------------                
   | Element: Si Ionic charge:  4.00 Level of theory: PBE     |                
   | Atomic Solver: Koelling-Harmon                           |                
   |                                                          |                
   |               Reference Electronic Structure             |                
   |         Orbital         Occupation         Energy        |                
   |            3s              2.000           -0.397        |                
   |            3p              2.000           -0.150        |                
   |                                                          |                
   |                 Pseudopotential Definition               |                
   |        Beta     l      e      Rc     scheme   norm       |                
   |          1      0   -0.397   1.797     qc      0         |                
   |          2      0    0.250   1.797     qc      0         |                
   |          3      1   -0.150   1.797     qc      0         |                
   |          4      1    0.250   1.797     qc      0         |                
   |          5      2    0.000   1.797     qc      0         |                
   |          6      2    0.250   1.797     qc      0         |                
   |         loc     3    0.000   1.797     pn      0         |                
   |                                                          |                
   | Augmentation charge Rinner = 1.255                       |                
   | Partial core correction Rc = 1.255                       |                
   ------------------------------------------------------------                
   | "3|1.8|3.6|5|7|30UU:31UU:32UU[]"                         |                
   ------------------------------------------------------------                
   |      Author: Chris J. Pickard, Cambridge University      |                
   ============================================================                
 
 Doing a self consistent calculation for the test configuration
 
 Atomic calculation performed for Si: 1s2 2s2 2p6 3s2 3p2
 
 Converged in 54 iterations to an ae energy of -7886.857 eV
 
 ---------------------------------------
 AE eigenvalue nl 10 =      -65.63192903
 AE eigenvalue nl 20 =       -5.12654326
 AE eigenvalue nl 21 =       -3.51173659
 AE eigenvalue nl 30 =       -0.39736430
 AE eigenvalue nl 31 =       -0.14998156
 ---------------------------------------
 PS eigenvalue nl 30 =       -0.39734922
 PS eigenvalue nl 31 =       -0.14996719
 ---------------------------------------
 Maximum eigenvalue error:   1.51E-05
 
 Derived cutoff energies: C=   1 M=   3 F=   6 E=   6
 
 Checking for ghost states up to   1.41161 Ha
 
 No Ghost States Identified
 
 ***************************************
 
 Pseudo atomic calculation performed for H 1s1
 
 Converged in 13 iterations to a total energy of -12.4790 eV
 
 Pseudo atomic calculation performed for C 2s2 2p2
 
 Converged in 17 iterations to a total energy of -148.5208 eV
 
 Pseudo atomic calculation performed for N 2s2 2p3
 
 Converged in 21 iterations to a total energy of -268.1820 eV
 
 Pseudo atomic calculation performed for O 2s2 2p4
 
 Converged in 23 iterations to a total energy of -432.6536 eV
 
 Pseudo atomic calculation performed for Si 3s2 3p2
 
 Converged in 11 iterations to a total energy of -165.0683 eV
 Calculation parallelised over 48 processes.
 Data is distributed by G-vector(48-way)

 ************************************ Title ************************************
 CASTEP calculation from BIOVIA Materials Studio 2024

 ***************************** General Parameters ******************************
  
 output verbosity                               : normal  (1)
 write checkpoint data to                       : Conf_0022.check
 type of calculation                            : geometry optimization
 stress calculation                             : off
 density difference calculation                 : off
 electron localisation func (ELF) calculation   : off
 Hirshfeld analysis                             : on
 polarisation (Berry phase) analysis            : off
 molecular orbital projected DOS                : off
 deltaSCF calculation                           : off
 unlimited duration calculation
 timing information                             : on
 memory usage estimate                          : on
 write extra output files                       : on
 write final potential to formatted file        : off
 write final density to formatted file          : off
 write BibTeX reference list                    : on
 write OTFG pseudopotential files               : on
 write electrostatic potential file             : on
 write bands file                               : on
 checkpoint writing                             : both castep_bin and check files
  
 output         length unit                     : A
 output           mass unit                     : amu
 output           time unit                     : ps
 output         charge unit                     : e
 output           spin unit                     : hbar/2
 output         energy unit                     : eV
 output          force unit                     : eV/A
 output       velocity unit                     : A/ps
 output       pressure unit                     : GPa
 output     inv_length unit                     : 1/A
 output      frequency unit                     : cm-1
 output force constant unit                     : eV/A**2
 output         volume unit                     : A**3
 output   IR intensity unit                     : (D/A)**2/amu
 output         dipole unit                     : D
 output         efield unit                     : eV/A/e
 output        entropy unit                     : J/mol/K
 output    efield chi2 unit                     : pm/V
  
 wavefunctions paging                           : none
 random number generator seed                   :   12144363
 data distribution                              : optimal for this architecture
 optimization strategy                          : balance speed and memory

 *********************** Exchange-Correlation Parameters ***********************
  
 using functional                               : Perdew Burke Ernzerhof
 relativistic treatment                         : Koelling-Harmon
 DFT+D: Semi-empirical dispersion correction    : on
 SEDC with                                      : G06 correction scheme

 ************************* Pseudopotential Parameters **************************
  
 pseudopotential representation                 : reciprocal space
 <beta|phi> representation                      : reciprocal space
 spin-orbit coupling                            : off

 **************************** Basis Set Parameters *****************************
  
 plane wave basis set cut-off                   :   600.0000   eV
 size of standard grid                          :     1.5000
 size of   fine   gmax                          :    18.8237   1/A
 largest prime factor in FFT                    :          5
 finite basis set correction                    : none

 **************************** Electronic Parameters ****************************
  
 number of  electrons                           :  74.00    
 net charge of system                           : +1.000    
 treating system as non-spin-polarized
 number of bands                                :         37

 ********************* Electronic Minimization Parameters **********************
  
 Method: Treating system as non-metallic,
         and number of  SD  steps               :          1
         and number of  CG  steps               :          4
  
 total energy / atom convergence tol.           : 0.2000E-05   eV
 eigen-energy convergence tolerance             : 0.1000E-05   eV
 max force / atom convergence tol.              : ignored
 convergence tolerance window                   :          3   cycles
 max. number of SCF cycles                      :        100
 periodic dipole correction                     : NONE

 ************************** Density Mixing Parameters **************************
  
 density-mixing scheme                          : Pulay
 max. length of mixing history                  :         20
 charge density mixing amplitude                : 0.5000    
 cut-off energy for mixing                      :  600.0       eV
 charge density mixing g-vector                 :  1.500       1/A

 *********************** Population Analysis Parameters ************************
  
 Population analysis with cutoff                :  3.000       A
 Population analysis output                     : summary and pdos components

 ********************** Geometry Optimization Parameters ***********************
  
 optimization method                            : LBFGS
 max. no. of LBFGS updates                      : unbounded
 preconditioned LBFGS is activated
 preconditioner type                            : EXP
     stabilization constant                     :     0.1000
     parameter A                                :     3.0000
     nearest neighbor distance                  : automatic
     cut-off distance                           : automatic
     parameter mu                               : automatic
 variable cell method                           : fixed basis quality
 max. number of steps                           :        300
 estimated bulk modulus                         :  500.0       GPa
 estimated <frequency>                          :  1668.       cm-1
 geom line minimiser                            : on
 with line minimiser tolerance                  :     0.4000
 total energy convergence tolerance             : 0.2000E-04   eV/atom
        max ionic |force| tolerance             : 0.5000E-01   eV/A
 max ionic |displacement| tolerance             : 0.2000E-02   A
   max |stress component| tolerance             : 0.1000       GPa
 convergence tolerance window                   :          2   steps
 backup results every                           :          5   steps
 write geom trajectory file                     : on

 *******************************************************************************
  
 
                           -------------------------------
                                      Unit Cell
                           -------------------------------
        Real Lattice(A)                      Reciprocal Lattice(1/A)
    13.4840002    -0.0000006    -0.0000006        0.465973392   0.000000000   0.000000000
     0.0000000    20.4006996    -0.0000009        0.000000013   0.307988717   0.000000000
     0.0000000     0.0000000    45.0000000        0.000000006   0.000000006   0.139626340
 
                       Lattice parameters(A)       Cell Angles
                    a =     13.484000          alpha =   90.000003
                    b =     20.400700          beta  =   90.000003
                    c =     45.000000          gamma =   90.000003
 
                       Current cell volume =         12378.736702       A**3
                                   density =             0.015698   AMU/A**3
                                           =             0.026068     g/cm^3
 
                           -------------------------------
                                     Cell Contents
                           -------------------------------
                         Total number of ions in cell =   32
                      Total number of species in cell =    5
                        Max number of any one species =   20
 
            xxxxxxxxxxxxxxxxxxxxxxxxxxxxxxxxxxxxxxxxxxxxxxxxxxxxxxxxxxxx
            x  Element    Atom        Fractional coordinates of atoms  x
            x            Number           u          v          w      x
            x----------------------------------------------------------x
            x  H            1         0.616404   0.435289   0.529434   x 
            x  H            2         0.679637   0.504044   0.545741   x 
            x  H            3         0.453400   0.479272   0.548578   x 
            x  H            4         0.515766   0.547233   0.564710   x 
            x  H            5         0.745811   0.528474   0.498957   x 
            x  H            6         0.679076   0.461908   0.482237   x 
            x  H            7         0.722309   0.536263   0.442229   x 
            x  H            8         0.687699   0.606514   0.462455   x 
            x  H            9         0.568843   0.575968   0.421053   x 
            x  H           10         0.511240   0.584377   0.455900   x 
            x  H           11         0.587843   0.413737   0.403572   x 
            x  H           12         0.371702   0.428181   0.414652   x 
            x  H           13         0.443578   0.403970   0.474481   x 
            x  H           14         0.525026   0.511908   0.498107   x 
            x  H           15         0.582505   0.576009   0.512785   x 
            x  H           16         0.548488   0.402805   0.581840   x 
            x  H           17         0.611242   0.470497   0.597808   x 
            x  H           18         0.470122   0.435677   0.630128   x 
            x  H           19         0.385350   0.447135   0.600286   x 
            x  H           20         0.447906   0.515810   0.616032   x 
            x  C            1         0.608536   0.486812   0.536485   x 
            x  C            2         0.524033   0.495033   0.558730   x 
            x  C            3         0.677878   0.515035   0.486753   x 
            x  C            4         0.666654   0.555076   0.458139   x 
            x  C            5         0.563174   0.553168   0.443267   x 
            x  C            6         0.540838   0.455386   0.587272   x 
            x  C            7         0.456492   0.463941   0.609640   x 
            x  N            1         0.588268   0.527827   0.507907   x 
            x  O            1         0.402384   0.468214   0.420168   x 
            x  O            2         0.480201   0.443760   0.473030   x 
            x  O            3         0.581573   0.416286   0.424556   x 
            x  Si           1         0.504819   0.468764   0.439136   x 
            xxxxxxxxxxxxxxxxxxxxxxxxxxxxxxxxxxxxxxxxxxxxxxxxxxxxxxxxxxxx
 
 
                         No user defined ionic velocities
 
                           -------------------------------
                                   Details of Species
                           -------------------------------
 
                               Mass of species in AMU
                                    H    1.0080000
                                    C   12.0109997
                                    N   14.0070000
                                    O   15.9989996
                                    Si   28.0849991
 
                          Electric Quadrupole Moment (Barn)
                                    H    0.0028600 Isotope  2
                                    C    0.0332700 Isotope 11
                                    N    0.0204400 Isotope 14
                                    O   -0.0255800 Isotope 17
                                    Si    1.0000000 No Isotope Defined
 
                          Files used for pseudopotentials:
                                    H 1|0.6|9|10|15|10UU(qc=8)[]
                                    C 2|1.4|11|12|14.7|20UU:21UU(qc=7)[]
                                    N 2|1.1|12|16|19|20UU:21UU(qc=7)[]
                                    O 2|1.1|14|18|21|20UU:21UU(qc=7)[]
                                    Si 3|1.8|3.6|5|7|30UU:31UU:32UU[]
 
                           -------------------------------
                              k-Points For BZ Sampling
                           -------------------------------
                       MP grid size for SCF calculation is  1  1  1
                            with an offset of   0.000  0.000  0.000
                       Number of kpoints used =             1
 
                           -------------------------------
                               Symmetry and Constraints
                           -------------------------------
 
                      Maximum deviation from symmetry =  0.00000         ANG
 
                      Number of symmetry operations   =           1
                      Number of nonlinear constraints =           3
         There are no ionic constraints specified or generated for this cell
                      Point group of crystal =     1: C1, 1, 1
                      Space group of crystal =     1: P1, P 1
 
             Set iprint > 1 for details on symmetry rotations/translations
 
                         Centre of mass is NOT constrained
 
                         Number of cell constraints= 6
                         Cell constraints are:  0 0 0 0 0 0
 
                         External pressure/stress (GPa)
                          0.00000   0.00000   0.00000
                                    0.00000   0.00000
                                              0.00000
 
                                --------------------
                                  DFT-D parameters
                                --------------------
 
                          Dispersion-correction scheme : G06       
                        Parameter s6 :   0.750000 (default)
                        Parameter d  :  20.000000 (default)
 
        xxxxxxxxxxxxxxxxxxxxxxxxxxxxxxxxxxxxxxxxxxxxxxxxxxxxxxxxxxxxxxxxxxxx
        x              Atomic DFT-D parameters                             x
        x  Species      C6            R0                                   x
        x               eV A^6        Ang                                  x
        x------------------------------------------------------------------x
        x  H             1.4510       1.0010   (default)                   x
        x  C            18.1375       1.4520   (default)                   x
        x  N            12.7481       1.3970   (default)                   x
        x  O             7.2550       1.3420   (default)                   x
        x  Si           95.6622       1.7160   (default)                   x
        xxxxxxxxxxxxxxxxxxxxxxxxxxxxxxxxxxxxxxxxxxxxxxxxxxxxxxxxxxxxxxxxxxxx
 
 
+---------------- MEMORY AND SCRATCH DISK ESTIMATES PER PROCESS --------------+
|                                                     Memory          Disk    |
| Baseline code, static data and system overhead     6528.0 MB         0.0 MB |
| BLAS internal memory storage                          0.0 MB         0.0 MB |
| Model and support data                              540.6 MB         0.0 MB |
| Electronic energy minimisation requirements          31.8 MB         0.0 MB |
| Force calculation requirements                        6.8 MB         0.0 MB |
|                                               ----------------------------- |
| Approx. total storage required per process         7100.3 MB         0.0 MB |
|                                                                             |
| Requirements will fluctuate during execution and may exceed these estimates |
+-----------------------------------------------------------------------------+
Calculating approximate eigenstates for fixed initial Hamiltonian
Cut-off for approx. calculation is  119.774 eV
Improving approx. states at cut-off of  300.000 eV
Resetting cut-off to  600.000 eV
Calculating total energy with cut-off of  600.000 eV.
------------------------------------------------------------------------ <-- SCF
SCF loop      Energy                           Energy gain       Timer   <-- SCF
                                               per atom          (sec)   <-- SCF
------------------------------------------------------------------------ <-- SCF
Initial  -2.93842858E+003                                         31.02  <-- SCF
      1  -3.20277578E+003                    8.26085000E+000      31.83  <-- SCF
      2  -3.20320222E+003                    1.33263428E-002      32.73  <-- SCF
      3  -3.19290361E+003                   -3.21831686E-001      33.75  <-- SCF
      4  -3.19175748E+003                   -3.58166199E-002      34.92  <-- SCF
      5  -3.19121319E+003                   -1.70091801E-002      35.93  <-- SCF
      6  -3.19114341E+003                   -2.18054817E-003      37.22  <-- SCF
      7  -3.19110324E+003                   -1.25531652E-003      38.23  <-- SCF
      8  -3.19110326E+003                    7.32025213E-007      39.35  <-- SCF
      9  -3.19109642E+003                   -2.13682906E-004      40.35  <-- SCF
     10  -3.19108393E+003                   -3.90300952E-004      41.42  <-- SCF
     11  -3.19105940E+003                   -7.66707283E-004      42.45  <-- SCF
     12  -3.19099214E+003                   -2.10168142E-003      43.45  <-- SCF
     13  -3.19091602E+003                   -2.37879762E-003      44.45  <-- SCF
     14  -3.19084614E+003                   -2.18379984E-003      45.44  <-- SCF
     15  -3.19078736E+003                   -1.83683936E-003      46.44  <-- SCF
     16  -3.19075314E+003                   -1.06943763E-003      47.44  <-- SCF
     17  -3.19072100E+003                   -1.00427728E-003      48.42  <-- SCF
     18  -3.19069479E+003                   -8.19204699E-004      49.41  <-- SCF
     19  -3.19066501E+003                   -9.30476226E-004      50.44  <-- SCF
     20  -3.19064135E+003                   -7.39395025E-004      51.48  <-- SCF
     21  -3.19062097E+003                   -6.36914731E-004      52.51  <-- SCF
     22  -3.19061196E+003                   -2.81681129E-004      53.44  <-- SCF
     23  -3.19060943E+003                   -7.89174038E-005      54.44  <-- SCF
     24  -3.19061140E+003                    6.15837546E-005      55.35  <-- SCF
     25  -3.19061710E+003                    1.77872840E-004      56.28  <-- SCF
     26  -3.19062055E+003                    1.08076532E-004      57.12  <-- SCF
     27  -3.19062536E+003                    1.50278570E-004      57.95  <-- SCF
     28  -3.19062801E+003                    8.25770866E-005      58.75  <-- SCF
     29  -3.19063038E+003                    7.41540450E-005      59.55  <-- SCF
     30  -3.19063268E+003                    7.20287688E-005      60.34  <-- SCF
     31  -3.19063476E+003                    6.48893565E-005      61.14  <-- SCF
     32  -3.19063633E+003                    4.89776114E-005      61.94  <-- SCF
     33  -3.19063755E+003                    3.82778055E-005      62.74  <-- SCF
     34  -3.19063822E+003                    2.10263198E-005      63.53  <-- SCF
     35  -3.19063902E+003                    2.49057767E-005      64.32  <-- SCF
     36  -3.19063959E+003                    1.78600681E-005      65.11  <-- SCF
     37  -3.19064009E+003                    1.56608792E-005      65.91  <-- SCF
     38  -3.19064048E+003                    1.18979756E-005      66.70  <-- SCF
     39  -3.19064075E+003                    8.59026909E-006      67.50  <-- SCF
     40  -3.19064104E+003                    9.06181338E-006      68.29  <-- SCF
     41  -3.19064128E+003                    7.58920230E-006      69.08  <-- SCF
     42  -3.19064141E+003                    4.11288664E-006      69.88  <-- SCF
     43  -3.19064151E+003                    3.01778842E-006      70.71  <-- SCF
     44  -3.19064156E+003                    1.64678016E-006      71.53  <-- SCF
     45  -3.19064163E+003                    2.01280086E-006      72.32  <-- SCF
     46  -3.19064168E+003                    1.47612185E-006      73.11  <-- SCF
     47  -3.19064169E+003                    4.74957711E-007      73.91  <-- SCF
------------------------------------------------------------------------ <-- SCF
 
Final energy =  -3190.641690762     eV
(energy not corrected for finite basis set)
 
(SEDC) Total Energy Correction : -0.827256E+00 eV

Dispersion corrected final energy* =  -3191.468946271     eV

Writing analysis data to Conf_0022.castep_bin

Writing model to Conf_0022.check

WARNING - nonlinear constraints cannot be used with LBFGS algorithm
        - consider setting geom_method=DELOCALIZED
 
        => Turning nonlinear constraints OFF
 
+---------------- MEMORY AND SCRATCH DISK ESTIMATES PER PROCESS --------------+
|                                                     Memory          Disk    |
| Model and support data                              550.1 MB         0.0 MB |
| Electronic energy minimisation requirements          31.8 MB         0.0 MB |
| Geometry minimisation requirements                   34.8 MB         0.0 MB |
|                                               ----------------------------- |
| Approx. total storage required per process          616.7 MB         0.0 MB |
|                                                                             |
| Requirements will fluctuate during execution and may exceed these estimates |
+-----------------------------------------------------------------------------+
 
 
 ************************************** Forces **************************************
 *                                                                                  *
 *                           Cartesian components (eV/A)                            *
 * -------------------------------------------------------------------------------- *
 *                         x                    y                    z              *
 *                                                                                  *
 * H               1     -0.04145              0.26083             -0.10386         *
 * H               2     -0.11159              0.01059             -0.17828         *
 * H               3      0.02757             -0.00009             -0.04798         *
 * H               4      0.00277             -0.00035             -0.04022         *
 * H               5     -0.25073              0.00608              0.01332         *
 * H               6     -0.21499              0.15622              0.12382         *
 * H               7     -0.08821              0.02024              0.19650         *
 * H               8     -0.08083             -0.10499              0.01056         *
 * H               9     -0.04684             -0.07737              0.16090         *
 * H              10     -0.03115              0.05808             -0.09776         *
 * H              11      0.11038             -0.10263             -1.05330         *
 * H              12     -0.39847             -0.82907             -0.37985         *
 * H              13     -0.49127             -0.78413              0.21561         *
 * H              14     -0.69701             -0.56126             -0.39653         *
 * H              15      0.03322              0.64627              0.19379         *
 * H              16      0.03044              0.12031             -0.06101         *
 * H              17     -0.04447             -0.04021             -0.12249         *
 * H              18      0.04703              0.06302             -0.14703         *
 * H              19      0.07360             -0.00473              0.01829         *
 * H              20      0.01843             -0.07759             -0.03627         *
 * C               1     -0.73514              0.52967             -0.05299         *
 * C               2     -0.00353             -0.03599              0.03286         *
 * C               3     -0.77787              0.55420             -0.21954         *
 * C               4      0.22035             -0.06380             -0.19575         *
 * C               5     -0.34137             -0.30869              0.11702         *
 * C               6      0.14585             -0.14326              0.14117         *
 * C               7     -0.12035              0.05902              0.07922         *
 * N               1      2.55801             -1.54418              0.69231         *
 * O               1     -0.03074              1.46657              0.01233         *
 * O               2      0.54581              0.62896              0.84336         *
 * O               3      0.55134             -0.31867              1.09210         *
 * Si              1      0.14119              0.41699             -0.81030         *
 *                                                                                  *
 ************************************************************************************
 EXP precond LBFGS => estimated nearest neighbor distance :  1.624       A
 EXP precond LBFGS => estimated cutoff distance :  3.247       A
 doing test perturbation to get energy scale for EXP preconditioner
 
                           -------------------------------
                                     Cell Contents
                           -------------------------------
 
            xxxxxxxxxxxxxxxxxxxxxxxxxxxxxxxxxxxxxxxxxxxxxxxxxxxxxxxxxxxxxxxxx
            x  Element         Atom        Fractional coordinates of atoms  x
            x                 Number           u          v          w      x
            x---------------------------------------------------------------x
            x  H                 1         0.617604   0.435961   0.529694   x
            x  H                 2         0.680805   0.504537   0.545982   x
            x  H                 3         0.454527   0.479837   0.548816   x
            x  H                 4         0.516948   0.547583   0.564928   x
            x  H                 5         0.746909   0.528888   0.499248   x
            x  H                 6         0.680245   0.462518   0.482543   x
            x  H                 7         0.723436   0.536651   0.442564   x
            x  H                 8         0.688860   0.606644   0.462776   x
            x  H                 9         0.570045   0.576214   0.421399   x
            x  H                10         0.512419   0.584591   0.456226   x
            x  H                11         0.589047   0.414450   0.403925   x
            x  H                12         0.372711   0.428867   0.415000   x
            x  H                13         0.444694   0.404699   0.474794   x
            x  H                14         0.526213   0.512377   0.498399   x
            x  H                15         0.583709   0.576255   0.513062   x
            x  H                16         0.549686   0.403536   0.582035   x
            x  H                17         0.612443   0.471085   0.597982   x
            x  H                18         0.471267   0.436348   0.630255   x
            x  H                19         0.386383   0.447781   0.600456   x
            x  H                20         0.449027   0.516265   0.616179   x
            x  C                 1         0.609738   0.487355   0.536737   x
            x  C                 2         0.525220   0.495552   0.558955   x
            x  C                 3         0.679048   0.515493   0.487055   x
            x  C                 4         0.667832   0.555398   0.458464   x
            x  C                 5         0.564375   0.553497   0.443601   x
            x  C                 6         0.542033   0.456013   0.587460   x
            x  C                 7         0.457623   0.464547   0.609797   x
            x  N                 1         0.589472   0.528244   0.508190   x
            x  O                 1         0.403444   0.468808   0.420514   x
            x  O                 2         0.481356   0.444413   0.473343   x
            x  O                 3         0.582777   0.416995   0.424900   x
            x  Si                1         0.505994   0.469357   0.439473   x
            xxxxxxxxxxxxxxxxxxxxxxxxxxxxxxxxxxxxxxxxxxxxxxxxxxxxxxxxxxxxxxxxx
 
 
------------------------------------------------------------------------ <-- SCF
SCF loop      Energy                           Energy gain       Timer   <-- SCF
                                               per atom          (sec)   <-- SCF
------------------------------------------------------------------------ <-- SCF
Initial  -3.19290172E+003                                         75.89  <-- SCF
      1  -3.19062253E+003                   -7.12244342E-002      76.70  <-- SCF
      2  -3.19064651E+003                    7.49395812E-004      77.84  <-- SCF
      3  -3.19062065E+003                   -8.08343854E-004      78.84  <-- SCF
      4  -3.19063850E+003                    5.58014718E-004      79.85  <-- SCF
      5  -3.19063867E+003                    5.16191861E-006      80.66  <-- SCF
      6  -3.19063890E+003                    7.23662870E-006      81.42  <-- SCF
      7  -3.19063897E+003                    2.12091788E-006      82.19  <-- SCF
      8  -3.19063903E+003                    2.01444732E-006      82.95  <-- SCF
      9  -3.19063906E+003                    9.65248636E-007      83.72  <-- SCF
     10  -3.19063911E+003                    1.36597206E-006      84.49  <-- SCF
     11  -3.19063913E+003                    5.79672712E-007      85.26  <-- SCF
------------------------------------------------------------------------ <-- SCF
 
Final energy =  -3190.639125727     eV
(energy not corrected for finite basis set)
 
(SEDC) Total Energy Correction : -0.827815E+00 eV

Dispersion corrected final energy* =  -3191.466940532     eV
 
 ************************************** Forces **************************************
 *                                                                                  *
 *                           Cartesian components (eV/A)                            *
 * -------------------------------------------------------------------------------- *
 *                         x                    y                    z              *
 *                                                                                  *
 * H               1     -0.00681              0.16893             -0.12840         *
 * H               2     -0.08237              0.03623             -0.15327         *
 * H               3      0.03366             -0.00274             -0.05738         *
 * H               4     -0.00873              0.09352             -0.01017         *
 * H               5     -0.22196              0.02011              0.03261         *
 * H               6     -0.20360              0.04713              0.11588         *
 * H               7     -0.06641             -0.00066              0.17679         *
 * H               8     -0.05953              0.00705              0.01992         *
 * H               9     -0.04493             -0.05430              0.12153         *
 * H              10     -0.05137              0.09505             -0.07236         *
 * H              11      0.11457             -0.12005             -1.08710         *
 * H              12     -0.42880             -0.92180             -0.40075         *
 * H              13     -0.49695             -0.83585              0.22240         *
 * H              14     -0.71528             -0.55962             -0.39247         *
 * H              15      0.02453              0.82599              0.23861         *
 * H              16      0.03932              0.04194             -0.07760         *
 * H              17     -0.04199             -0.03385             -0.10870         *
 * H              18      0.05461              0.03553             -0.10183         *
 * H              19      0.09893             -0.00351              0.01341         *
 * H              20      0.01114              0.00318             -0.01539         *
 * C               1     -0.75852              0.54923             -0.04336         *
 * C               2     -0.00737             -0.09174             -0.00976         *
 * C               3     -0.79509              0.57189             -0.20276         *
 * C               4      0.18656             -0.11427             -0.21800         *
 * C               5     -0.31786             -0.29803              0.12319         *
 * C               6      0.12937             -0.14013              0.17169         *
 * C               7     -0.13112             -0.00021              0.03517         *
 * N               1      2.50618             -1.47071              0.66222         *
 * O               1      0.02965              1.48924              0.04845         *
 * O               2      0.55658              0.62475              0.86940         *
 * O               3      0.57179             -0.35801              1.07267         *
 * Si              1      0.08178              0.39572             -0.84466         *
 *                                                                                  *
 ************************************************************************************
 EXP precond LBFGS => estimated parameter mu :  2.010       eV/A**2
 LBFGS: finished iteration     0 with enthalpy= -3.19146895E+003 eV
  
 +-----------+-----------------+-----------------+------------+-----+ <-- LBFGS
 | Parameter |      value      |    tolerance    |    units   | OK? | <-- LBFGS
 +-----------+-----------------+-----------------+------------+-----+ <-- LBFGS
 |  dE/ion   |   0.000000E+000 |   2.000000E-005 |         eV | No  | <-- LBFGS
 |  |F|max   |   2.980348E+000 |   5.000000E-002 |       eV/A | No  | <-- LBFGS
 |  |dR|max  |   4.770824E-015 |   2.000000E-003 |          A | No  | <-- LBFGS
 +-----------+-----------------+-----------------+------------+-----+ <-- LBFGS
  

================================================================================
 Starting LBFGS iteration          1 ...
================================================================================
  
 +------------+-------------+-------------+-----------------+ <-- min LBFGS
 |    Step    |   lambda    |   F.delta'  |    enthalpy     | <-- min LBFGS
 +------------+-------------+-------------+-----------------+ <-- min LBFGS
 |  previous  |    0.000000 |    2.214404 |    -3191.468946 | <-- min LBFGS
 +------------+-------------+-------------+-----------------+ <-- min LBFGS
  

--------------------------------------------------------------------------------
 LBFGS: starting iteration         1 with trial guess (lambda=  1.000000)
--------------------------------------------------------------------------------
 
                           -------------------------------
                                     Cell Contents
                           -------------------------------
 
            xxxxxxxxxxxxxxxxxxxxxxxxxxxxxxxxxxxxxxxxxxxxxxxxxxxxxxxxxxxxxxxxx
            x  Element         Atom        Fractional coordinates of atoms  x
            x                 Number           u          v          w      x
            x---------------------------------------------------------------x
            x  H                 1         0.615008   0.436751   0.529406   x
            x  H                 2         0.677837   0.504597   0.545560   x
            x  H                 3         0.453794   0.479253   0.548444   x
            x  H                 4         0.516049   0.547239   0.564594   x
            x  H                 5         0.741521   0.528622   0.499457   x
            x  H                 6         0.675332   0.462597   0.482940   x
            x  H                 7         0.719249   0.535607   0.443041   x
            x  H                 8         0.684849   0.605251   0.462945   x
            x  H                 9         0.565745   0.574567   0.421744   x
            x  H                10         0.508786   0.583472   0.456124   x
            x  H                11         0.598163   0.412091   0.400472   x
            x  H                12         0.366896   0.430639   0.411983   x
            x  H                13         0.441936   0.400482   0.476982   x
            x  H                14         0.524914   0.508452   0.498476   x
            x  H                15         0.585909   0.576087   0.513847   x
            x  H                16         0.549203   0.403441   0.581489   x
            x  H                17         0.611478   0.470460   0.597340   x
            x  H                18         0.471073   0.436177   0.629480   x
            x  H                19         0.386445   0.447340   0.599973   x
            x  H                20         0.448644   0.515701   0.615616   x
            x  C                 1         0.605927   0.488063   0.536562   x
            x  C                 2         0.524134   0.495063   0.558680   x
            x  C                 3         0.673342   0.515861   0.487133   x
            x  C                 4         0.664656   0.554152   0.458476   x
            x  C                 5         0.559795   0.551584   0.443735   x
            x  C                 6         0.541738   0.455297   0.587110   x
            x  C                 7         0.456917   0.464244   0.609324   x
            x  N                 1         0.596554   0.523751   0.509123   x
            x  O                 1         0.399953   0.476935   0.418216   x
            x  O                 2         0.483077   0.444515   0.475738   x
            x  O                 3         0.592464   0.414497   0.424539   x
            x  Si                1         0.507410   0.471588   0.437516   x
            xxxxxxxxxxxxxxxxxxxxxxxxxxxxxxxxxxxxxxxxxxxxxxxxxxxxxxxxxxxxxxxxx
 
 
------------------------------------------------------------------------ <-- SCF
SCF loop      Energy                           Energy gain       Timer   <-- SCF
                                               per atom          (sec)   <-- SCF
------------------------------------------------------------------------ <-- SCF
Initial  -3.20215252E+003                                         86.63  <-- SCF
      1  -3.18795980E+003                   -4.43522665E-001      87.43  <-- SCF
      2  -3.18991615E+003                    6.11360455E-002      88.72  <-- SCF
      3  -3.18939843E+003                   -1.61789207E-002      89.84  <-- SCF
      4  -3.18944849E+003                    1.56446967E-003      90.97  <-- SCF
      5  -3.18948394E+003                    1.10770955E-003      91.98  <-- SCF
      6  -3.18948553E+003                    4.97494576E-005      93.11  <-- SCF
      7  -3.18948554E+003                    3.87105698E-007      94.00  <-- SCF
      8  -3.18948558E+003                    1.27717419E-006      94.76  <-- SCF
------------------------------------------------------------------------ <-- SCF
 
Final energy =  -3189.485581322     eV
(energy not corrected for finite basis set)
 
(SEDC) Total Energy Correction : -0.823653E+00 eV

Dispersion corrected final energy* =  -3190.309234821     eV
 
 ************************************** Forces **************************************
 *                                                                                  *
 *                           Cartesian components (eV/A)                            *
 * -------------------------------------------------------------------------------- *
 *                         x                    y                    z              *
 *                                                                                  *
 * H               1     -0.00134             -0.06180              0.22838         *
 * H               2     -0.06477             -0.21141              0.27181         *
 * H               3     -0.09071              0.01996              0.00227         *
 * H               4     -0.11284              0.05940              0.02736         *
 * H               5      0.19914             -0.04818             -0.40505         *
 * H               6      0.05610              0.07375             -0.14475         *
 * H               7      0.42845             -0.33344             -0.23436         *
 * H               8     -0.08478              0.20479             -0.10769         *
 * H               9      0.00165              0.13244             -0.13984         *
 * H              10     -0.20282             -0.06896             -0.01568         *
 * H              11     -0.35042              0.23059              3.79581         *
 * H              12      1.56822              3.20506              0.90858         *
 * H              13      1.64339              2.69228             -0.14166         *
 * H              14      1.62018              0.07667              0.72925         *
 * H              15      0.32923             -1.99368             -0.30459         *
 * H              16      0.04593             -0.25157             -0.09456         *
 * H              17      0.27241              0.06910              0.07462         *
 * H              18      0.05550             -0.11660              0.23698         *
 * H              19     -0.12159             -0.05418             -0.06605         *
 * H              20     -0.02456              0.20637              0.03259         *
 * C               1      1.75351             -1.25476              0.64332         *
 * C               2     -0.61301              0.34936              0.07810         *
 * C               3      1.91632             -1.15358              0.06850         *
 * C               4     -1.04924              0.40554              0.25586         *
 * C               5      0.93763              1.23595              0.18191         *
 * C               6     -0.27643              0.20311             -0.09725         *
 * C               7      0.14761             -0.03054             -0.23403         *
 * N               1     -4.55007              3.56299             -1.12250         *
 * O               1     -0.15308             -3.19162             -0.18909         *
 * O               2     -1.23410             -1.90324             -1.98680         *
 * O               3     -1.09725              1.18241             -2.88448         *
 * Si              1     -0.94825             -3.23620              0.63303         *
 *                                                                                  *
 ************************************************************************************
  
 +------------+-------------+-------------+-----------------+ <-- min LBFGS
 |    Step    |   lambda    |   F.delta'  |    enthalpy     | <-- min LBFGS
 +------------+-------------+-------------+-----------------+ <-- min LBFGS
 |  previous  |    0.000000 |    2.214404 |    -3191.468946 | <-- min LBFGS
 | trial step |    1.000000 |   -4.889455 |    -3190.309235 | <-- min LBFGS
 +------------+-------------+-------------+-----------------+ <-- min LBFGS
  

--------------------------------------------------------------------------------
 LBFGS: improving iteration         1 with line minimization (lambda=  0.311718)
--------------------------------------------------------------------------------
 
                           -------------------------------
                                     Cell Contents
                           -------------------------------
 
            xxxxxxxxxxxxxxxxxxxxxxxxxxxxxxxxxxxxxxxxxxxxxxxxxxxxxxxxxxxxxxxxx
            x  Element         Atom        Fractional coordinates of atoms  x
            x                 Number           u          v          w      x
            x---------------------------------------------------------------x
            x  H                 1         0.615969   0.435744   0.529425   x
            x  H                 2         0.679076   0.504217   0.545684   x
            x  H                 3         0.453523   0.479266   0.548536   x
            x  H                 4         0.515854   0.547234   0.564674   x
            x  H                 5         0.744473   0.528520   0.499113   x
            x  H                 6         0.677909   0.462123   0.482456   x
            x  H                 7         0.721355   0.536059   0.442482   x
            x  H                 8         0.686810   0.606120   0.462608   x
            x  H                 9         0.567877   0.575531   0.421269   x
            x  H                10         0.510475   0.584095   0.455970   x
            x  H                11         0.591060   0.413224   0.402606   x
            x  H                12         0.370204   0.428947   0.413820   x
            x  H                13         0.443066   0.402883   0.475261   x
            x  H                14         0.524991   0.510831   0.498222   x
            x  H                15         0.583566   0.576034   0.513116   x
            x  H                16         0.548711   0.403003   0.581730   x
            x  H                17         0.611315   0.470485   0.597662   x
            x  H                18         0.470418   0.435833   0.629926   x
            x  H                19         0.385691   0.447199   0.600188   x
            x  H                20         0.448136   0.515776   0.615902   x
            x  C                 1         0.607722   0.487202   0.536509   x
            x  C                 2         0.524065   0.495042   0.558714   x
            x  C                 3         0.676464   0.515292   0.486871   x
            x  C                 4         0.666032   0.554788   0.458244   x
            x  C                 5         0.562121   0.552675   0.443413   x
            x  C                 6         0.541119   0.455358   0.587222   x
            x  C                 7         0.456625   0.464036   0.609541   x
            x  N                 1         0.590851   0.526557   0.508286   x
            x  O                 1         0.401626   0.470932   0.419560   x
            x  O                 2         0.481097   0.443995   0.473874   x
            x  O                 3         0.584968   0.415729   0.424551   x
            x  Si                1         0.505627   0.469644   0.438631   x
            xxxxxxxxxxxxxxxxxxxxxxxxxxxxxxxxxxxxxxxxxxxxxxxxxxxxxxxxxxxxxxxxx
 
 
------------------------------------------------------------------------ <-- SCF
SCF loop      Energy                           Energy gain       Timer   <-- SCF
                                               per atom          (sec)   <-- SCF
------------------------------------------------------------------------ <-- SCF
Initial  -3.20402456E+003                                         96.09  <-- SCF
      1  -3.19046537E+003                   -4.23724469E-001      96.91  <-- SCF
      2  -3.19100640E+003                    1.69070046E-002      98.00  <-- SCF
      3  -3.19073789E+003                   -8.39088589E-003      99.00  <-- SCF
      4  -3.19080025E+003                    1.94865751E-003     100.08  <-- SCF
      5  -3.19082462E+003                    7.61585006E-004     101.18  <-- SCF
      6  -3.19082637E+003                    5.46206259E-005     102.13  <-- SCF
      7  -3.19082720E+003                    2.59358836E-005     102.95  <-- SCF
      8  -3.19082771E+003                    1.60353298E-005     103.72  <-- SCF
      9  -3.19082825E+003                    1.69123200E-005     104.48  <-- SCF
     10  -3.19082863E+003                    1.19770418E-005     105.25  <-- SCF
     11  -3.19082890E+003                    8.20946588E-006     106.02  <-- SCF
     12  -3.19082921E+003                    9.84349518E-006     106.79  <-- SCF
     13  -3.19082938E+003                    5.28735878E-006     107.57  <-- SCF
     14  -3.19082953E+003                    4.62139438E-006     108.33  <-- SCF
     15  -3.19082960E+003                    2.27955474E-006     109.11  <-- SCF
     16  -3.19082966E+003                    1.72721803E-006     109.89  <-- SCF
     17  -3.19082967E+003                    4.19569544E-007     110.66  <-- SCF
     18  -3.19082968E+003                    1.92782790E-007     111.44  <-- SCF
------------------------------------------------------------------------ <-- SCF
 
Final energy =  -3190.829675533     eV
(energy not corrected for finite basis set)
 
(SEDC) Total Energy Correction : -0.825564E+00 eV

Dispersion corrected final energy* =  -3191.655239933     eV
 
 ************************************** Forces **************************************
 *                                                                                  *
 *                           Cartesian components (eV/A)                            *
 * -------------------------------------------------------------------------------- *
 *                         x                    y                    z              *
 *                                                                                  *
 * H               1     -0.02434              0.17262             -0.00812         *
 * H               2     -0.09507             -0.03853             -0.05596         *
 * H               3     -0.00445              0.01431             -0.03009         *
 * H               4     -0.02736              0.02755             -0.01587         *
 * H               5     -0.11937             -0.00424             -0.10675         *
 * H               6     -0.14151              0.14538              0.04958         *
 * H               7      0.06417             -0.07109              0.07106         *
 * H               8     -0.07720             -0.00298             -0.02604         *
 * H               9     -0.03667             -0.01848              0.07010         *
 * H              10     -0.07713              0.03152             -0.07121         *
 * H              11     -0.10128              0.06003              1.02045         *
 * H              12      0.44655              0.85868              0.19275         *
 * H              13      0.35461              0.60201              0.03129         *
 * H              14      0.27664             -0.24547              0.09139         *
 * H              15      0.12903             -0.37564             -0.00112         *
 * H              16      0.04033              0.01525             -0.06852         *
 * H              17      0.05841              0.00153             -0.06050         *
 * H              18      0.05680              0.00920             -0.02691         *
 * H              19      0.01925             -0.01123             -0.00624         *
 * H              20      0.01129              0.01853             -0.01388         *
 * C               1     -0.00685              0.08370              0.03503         *
 * C               2     -0.17370              0.08828              0.04767         *
 * C               3     -0.07837              0.07618             -0.03462         *
 * C               4     -0.15551              0.08266             -0.07232         *
 * C               5      0.03012              0.11253              0.09654         *
 * C               6      0.01938             -0.02755              0.07310         *
 * C               7     -0.03110              0.03844             -0.01155         *
 * N               1      0.19441             -0.14468              0.06241         *
 * O               1     -0.23703             -0.51464             -0.16873         *
 * O               2     -0.08971             -0.29407             -0.44058         *
 * O               3     -0.01681              0.20762             -0.60292         *
 * Si              1     -0.20750             -0.89741             -0.01945         *
 *                                                                                  *
 ************************************************************************************
  
 +------------+-------------+-------------+-----------------+ <-- min LBFGS
 |    Step    |   lambda    |   F.delta'  |    enthalpy     | <-- min LBFGS
 +------------+-------------+-------------+-----------------+ <-- min LBFGS
 |  previous  |    0.000000 |    2.214404 |    -3191.468946 | <-- min LBFGS
 | trial step |    1.000000 |   -4.889455 |    -3190.309235 | <-- min LBFGS
 |  line step |    0.311718 |   -0.438676 |    -3191.655240 | <-- min LBFGS
 +------------+-------------+-------------+-----------------+ <-- min LBFGS
  
 LBFGS: finished iteration     1 with enthalpy= -3.19165524E+003 eV
  
 +-----------+-----------------+-----------------+------------+-----+ <-- LBFGS
 | Parameter |      value      |    tolerance    |    units   | OK? | <-- LBFGS
 +-----------+-----------------+-----------------+------------+-----+ <-- LBFGS
 |  dE/ion   |   5.821677E-003 |   2.000000E-005 |         eV | No  | <-- LBFGS
 |  |F|max   |   1.027221E+000 |   5.000000E-002 |       eV/A | No  | <-- LBFGS
 |  |dR|max  |   6.268669E-002 |   2.000000E-003 |          A | No  | <-- LBFGS
 +-----------+-----------------+-----------------+------------+-----+ <-- LBFGS
  

================================================================================
 Starting LBFGS iteration          2 ...
================================================================================
  
 +------------+-------------+-------------+-----------------+ <-- min LBFGS
 |    Step    |   lambda    |   F.delta'  |    enthalpy     | <-- min LBFGS
 +------------+-------------+-------------+-----------------+ <-- min LBFGS
 |  previous  |    0.000000 |    0.813424 |    -3191.655240 | <-- min LBFGS
 +------------+-------------+-------------+-----------------+ <-- min LBFGS
  

--------------------------------------------------------------------------------
 LBFGS: starting iteration         2 with trial guess (lambda=  1.000000)
--------------------------------------------------------------------------------
 
                           -------------------------------
                                     Cell Contents
                           -------------------------------
 
            xxxxxxxxxxxxxxxxxxxxxxxxxxxxxxxxxxxxxxxxxxxxxxxxxxxxxxxxxxxxxxxxx
            x  Element         Atom        Fractional coordinates of atoms  x
            x                 Number           u          v          w      x
            x---------------------------------------------------------------x
            x  H                 1         0.615194   0.436507   0.529165   x
            x  H                 2         0.677780   0.503978   0.545303   x
            x  H                 3         0.453429   0.479324   0.548148   x
            x  H                 4         0.515591   0.547322   0.564310   x
            x  H                 5         0.741385   0.527994   0.498962   x
            x  H                 6         0.675040   0.462286   0.482620   x
            x  H                 7         0.719037   0.535057   0.442864   x
            x  H                 8         0.683905   0.605092   0.462706   x
            x  H                 9         0.565358   0.574370   0.421790   x
            x  H                10         0.508200   0.583209   0.456062   x
            x  H                11         0.592797   0.413964   0.405287   x
            x  H                12         0.373225   0.434600   0.413817   x
            x  H                13         0.446947   0.404590   0.475532   x
            x  H                14         0.526516   0.508081   0.498257   x
            x  H                15         0.585593   0.573830   0.513331   x
            x  H                16         0.549480   0.403440   0.581115   x
            x  H                17         0.612006   0.470642   0.597019   x
            x  H                18         0.471579   0.436355   0.629212   x
            x  H                19         0.386642   0.447543   0.599628   x
            x  H                20         0.448924   0.516115   0.615296   x
            x  C                 1         0.606637   0.487438   0.536315   x
            x  C                 2         0.523503   0.495215   0.558417   x
            x  C                 3         0.673700   0.515100   0.486825   x
            x  C                 4         0.663497   0.553984   0.458301   x
            x  C                 5         0.559804   0.551651   0.443788   x
            x  C                 6         0.541801   0.455476   0.586800   x
            x  C                 7         0.457242   0.464503   0.608974   x
            x  N                 1         0.594421   0.523801   0.508582   x
            x  O                 1         0.402221   0.474495   0.419330   x
            x  O                 2         0.484131   0.444276   0.473875   x
            x  O                 3         0.587474   0.416403   0.425949   x
            x  Si                1         0.505740   0.467731   0.438485   x
            xxxxxxxxxxxxxxxxxxxxxxxxxxxxxxxxxxxxxxxxxxxxxxxxxxxxxxxxxxxxxxxxx
 
 
------------------------------------------------------------------------ <-- SCF
SCF loop      Energy                           Energy gain       Timer   <-- SCF
                                               per atom          (sec)   <-- SCF
------------------------------------------------------------------------ <-- SCF
Initial  -3.20589715E+003                                        112.79  <-- SCF
      1  -3.19048578E+003                   -4.81605344E-001     113.59  <-- SCF
      2  -3.19072894E+003                    7.59901733E-003     114.76  <-- SCF
      3  -3.19061298E+003                   -3.62375092E-003     115.79  <-- SCF
      4  -3.19067852E+003                    2.04790438E-003     116.81  <-- SCF
      5  -3.19068471E+003                    1.93392918E-004     118.00  <-- SCF
      6  -3.19068521E+003                    1.59025597E-005     118.95  <-- SCF
      7  -3.19068513E+003                   -2.72068056E-006     119.74  <-- SCF
      8  -3.19068492E+003                   -6.60089240E-006     120.62  <-- SCF
      9  -3.19068495E+003                    1.04575930E-006     121.39  <-- SCF
     10  -3.19068510E+003                    4.85425880E-006     122.16  <-- SCF
     11  -3.19068539E+003                    8.82646249E-006     122.92  <-- SCF
     12  -3.19068561E+003                    7.11718291E-006     123.69  <-- SCF
     13  -3.19068581E+003                    6.21669244E-006     124.46  <-- SCF
     14  -3.19068611E+003                    9.17660855E-006     125.23  <-- SCF
     15  -3.19068623E+003                    3.76171660E-006     126.00  <-- SCF
     16  -3.19068646E+003                    7.22334478E-006     126.78  <-- SCF
     17  -3.19068658E+003                    3.74621996E-006     127.55  <-- SCF
     18  -3.19068674E+003                    5.10865592E-006     128.33  <-- SCF
     19  -3.19068686E+003                    3.68862201E-006     129.11  <-- SCF
     20  -3.19068691E+003                    1.68490907E-006     129.89  <-- SCF
     21  -3.19068697E+003                    1.87934566E-006     130.70  <-- SCF
     22  -3.19068700E+003                    8.82013303E-007     131.51  <-- SCF
     23  -3.19068703E+003                    8.44868103E-007     132.30  <-- SCF
------------------------------------------------------------------------ <-- SCF
 
Final energy =  -3190.687029581     eV
(energy not corrected for finite basis set)
 
(SEDC) Total Energy Correction : -0.834984E+00 eV

Dispersion corrected final energy* =  -3191.522013471     eV
 
 ************************************** Forces **************************************
 *                                                                                  *
 *                           Cartesian components (eV/A)                            *
 * -------------------------------------------------------------------------------- *
 *                         x                    y                    z              *
 *                                                                                  *
 * H               1      0.01265             -0.26587              0.17822         *
 * H               2      0.13277             -0.07798              0.25913         *
 * H               3     -0.12960             -0.01009              0.01014         *
 * H               4     -0.08935              0.09597              0.01106         *
 * H               5      0.31123             -0.01157             -0.16286         *
 * H               6      0.06060             -0.17527             -0.16462         *
 * H               7      0.16552             -0.14613             -0.06207         *
 * H               8      0.00696              0.17212             -0.02692         *
 * H               9     -0.02171              0.09179             -0.17333         *
 * H              10     -0.19225             -0.00334              0.06154         *
 * H              11      0.38369             -0.32581             -2.11798         *
 * H              12     -1.01729             -1.51432             -0.70623         *
 * H              13     -0.40610             -0.71740              0.32872         *
 * H              14      0.83447              0.05581              0.41796         *
[...]
 * C               1     -0.00654             -0.00024              0.00061         *
 * C               2      0.00297              0.00618              0.01670         *
 * C               3     -0.00161             -0.00728              0.01076         *
 * C               4     -0.00586              0.01020             -0.01205         *
 * C               5     -0.00230             -0.00241             -0.00473         *
 * C               6     -0.00305              0.00450             -0.00823         *
 * C               7      0.00267             -0.00641              0.00422         *
 * N               1     -0.00617             -0.00059             -0.00223         *
 * O               1     -0.00330              0.00140              0.00309         *
 * O               2      0.00502              0.02126             -0.00358         *
 * O               3     -0.00146              0.00017              0.00097         *
 * Si              1      0.00503             -0.00109             -0.00097         *
 *                                                                                  *
 ************************************************************************************
 
 Pseudo atomic calculation performed for H 1s1
 
 Converged in 13 iterations to a total energy of -12.4790 eV
 
 Pseudo atomic calculation performed for C 2s2 2p2
 
 Converged in 17 iterations to a total energy of -148.5208 eV
 
 Pseudo atomic calculation performed for N 2s2 2p3
 
 Converged in 21 iterations to a total energy of -268.1820 eV
 
 Pseudo atomic calculation performed for O 2s2 2p4
 
 Converged in 23 iterations to a total energy of -432.6536 eV
 
 Pseudo atomic calculation performed for Si 3s2 3p2
 
 Converged in 11 iterations to a total energy of -165.0683 eV
Charge spilling parameter for spin component 1 = 1.53%
 
            Orbital Populations       
     Ion    Atom   Orbital             Charge
  -------------------------------------------
      H     1      S                    0.695
      H     2      S                    0.693
      H     3      S                    0.735
      H     4      S                    0.732
      H     5      S                    0.685
      H     6      S                    0.698
      H     7      S                    0.684
      H     8      S                    0.713
      H     9      S                    0.679
      H    10      S                    0.728
      H    11      S                    0.453
      H    12      S                    0.459
      H    13      S                    0.463
      H    14      S                    0.557
      H    15      S                    0.524
      H    16      S                    0.731
      H    17      S                    0.725
      H    18      S                    0.700
      H    19      S                    0.735
      H    20      S                    0.727
      C     1      S                    1.297
      C     1      Px                   1.141
      C     1      Py                   1.133
      C     1      Pz                   0.832
      C     2      S                    1.297
      C     2      Px                   1.046
      C     2      Py                   1.166
      C     2      Pz                   1.009
      C     3      S                    1.296
      C     3      Px                   1.010
      C     3      Py                   1.184
      C     3      Pz                   0.920
      C     4      S                    1.307
      C     4      Px                   1.064
      C     4      Py                   1.141
      C     4      Pz                   1.033
      C     5      S                    1.406
      C     5      Px                   1.067
      C     5      Py                   1.291
      C     5      Pz                   1.224
      C     6      S                    1.304
      C     6      Px                   1.109
      C     6      Py                   1.136
      C     6      Pz                   0.961
      C     7      S                    1.399
      C     7      Px                   1.067
      C     7      Py                   1.205
      C     7      Pz                   1.122
      N     1      S                    1.569
      N     1      Px                   1.371
      N     1      Py                   1.392
      N     1      Pz                   1.263
      O     1      S                    1.854
      O     1      Px                   1.729
      O     1      Py                   1.734
      O     1      Pz                   1.765
      O     2      S                    1.851
      O     2      Px                   1.875
      O     2      Py                   1.628
      O     2      Pz                   1.730
      O     3      S                    1.855
      O     3      Px                   1.806
      O     3      Py                   1.801
      O     3      Pz                   1.637
     Si     1      S                    0.737
     Si     1      Px                   0.380
     Si     1      Py                   0.424
     Si     1      Pz                   0.314
  -------------------------------------------
                           Total:      74.000
  -------------------------------------------
 
     Atomic Populations (Mulliken)
     -----------------------------
Species          Ion     s       p       d       f      Total   Charge (e)
==========================================================================
  H               1     0.695   0.000   0.000   0.000   0.695     0.305
  H               2     0.693   0.000   0.000   0.000   0.693     0.307
  H               3     0.735   0.000   0.000   0.000   0.735     0.265
  H               4     0.732   0.000   0.000   0.000   0.732     0.268
  H               5     0.685   0.000   0.000   0.000   0.685     0.315
  H               6     0.698   0.000   0.000   0.000   0.698     0.302
  H               7     0.684   0.000   0.000   0.000   0.684     0.316
  H               8     0.713   0.000   0.000   0.000   0.713     0.287
  H               9     0.679   0.000   0.000   0.000   0.679     0.321
  H              10     0.728   0.000   0.000   0.000   0.728     0.272
  H              11     0.453   0.000   0.000   0.000   0.453     0.547
  H              12     0.459   0.000   0.000   0.000   0.459     0.541
  H              13     0.463   0.000   0.000   0.000   0.463     0.537
  H              14     0.557   0.000   0.000   0.000   0.557     0.443
  H              15     0.524   0.000   0.000   0.000   0.524     0.476
  H              16     0.731   0.000   0.000   0.000   0.731     0.269
  H              17     0.725   0.000   0.000   0.000   0.725     0.275
  H              18     0.700   0.000   0.000   0.000   0.700     0.300
  H              19     0.735   0.000   0.000   0.000   0.735     0.265
  H              20     0.727   0.000   0.000   0.000   0.727     0.273
  C               1     1.297   3.106   0.000   0.000   4.403    -0.403
  C               2     1.297   3.221   0.000   0.000   4.518    -0.518
  C               3     1.296   3.114   0.000   0.000   4.410    -0.410
  C               4     1.307   3.238   0.000   0.000   4.544    -0.544
  C               5     1.406   3.583   0.000   0.000   4.989    -0.989
  C               6     1.304   3.206   0.000   0.000   4.511    -0.511
  C               7     1.399   3.394   0.000   0.000   4.793    -0.793
  N               1     1.569   4.026   0.000   0.000   5.596    -0.596
  O               1     1.854   5.228   0.000   0.000   7.082    -1.082
  O               2     1.851   5.233   0.000   0.000   7.084    -1.084
  O               3     1.855   5.243   0.000   0.000   7.098    -1.098
  Si              1     0.737   1.119   0.000   0.000   1.855     2.145
==========================================================================
 
                 Bond                   Population      Length (A)
======================================================================
              H 12 -- O 1                    0.53        0.96929
              H 11 -- O 3                    0.53        0.96962
              H 13 -- O 2                    0.52        0.97134
              H 15 -- N 1                    0.68        1.02747
              H 14 -- N 1                    0.66        1.05075
              H 5  -- C 3                    0.85        1.09726
              H 2  -- C 1                    0.85        1.09852
              H 18 -- C 7                    0.81        1.09860
              H 1  -- C 1                    0.85        1.09867
              H 7  -- C 4                    0.83        1.09882
              H 20 -- C 7                    0.81        1.09897
              H 6  -- C 3                    0.86        1.09898
              H 19 -- C 7                    0.81        1.09958
              H 9  -- C 5                    0.82        1.10030
              H 8  -- C 4                    0.84        1.10128
              H 17 -- C 6                    0.84        1.10145
              H 16 -- C 6                    0.84        1.10251
              H 3  -- C 2                    0.85        1.10264
              H 10 -- C 5                    0.81        1.10325
              H 4  -- C 2                    0.84        1.10371
               C 3 -- N 1                    0.52        1.50299
               C 1 -- N 1                    0.52        1.50600
               C 1 -- C 2                    0.71        1.52042
               C 3 -- C 4                    0.70        1.52481
               C 6 -- C 7                    0.65        1.52782
               C 2 -- C 6                    0.68        1.53362
               C 4 -- C 5                    0.64        1.54346
               O 1 -- Si 1                   0.53        1.63180
               O 3 -- Si 1                   0.50        1.64800
               O 2 -- Si 1                   0.43        1.68361
              H 14 -- H 15                  -0.10        1.68837
              H 9  -- H 10                  -0.10        1.74462
              H 7  -- H 8                   -0.11        1.75914
              H 16 -- H 17                  -0.12        1.76962
              H 3  -- H 4                   -0.12        1.77451
              H 18 -- H 20                  -0.10        1.77567
              H 19 -- H 20                  -0.11        1.77672
              H 18 -- H 19                  -0.10        1.77677
              H 1  -- H 2                   -0.11        1.78246
              H 14 -- O 2                    0.09        1.78415
              H 5  -- H 6                   -0.11        1.78856
               C 5 -- Si 1                   0.62        1.86799
              H 14 -- C 3                   -0.12        2.05939
              H 14 -- C 1                   -0.12        2.07594
              H 6  -- N 1                   -0.12        2.08506
              H 15 -- C 1                   -0.13        2.09083
              H 1  -- N 1                   -0.11        2.09175
              H 15 -- C 3                   -0.12        2.09362
              H 7  -- C 3                   -0.13        2.10819
              H 5  -- N 1                   -0.11        2.10826
              H 2  -- N 1                   -0.11        2.11249
              H 8  -- C 3                   -0.14        2.15600
              H 3  -- C 1                   -0.13        2.15800
              H 16 -- C 2                   -0.14        2.15880
              H 17 -- C 2                   -0.13        2.16043
              H 4  -- C 1                   -0.14        2.16236
              H 17 -- C 7                   -0.13        2.16240
              H 3  -- C 6                   -0.12        2.16453
              H 9  -- C 4                   -0.11        2.16495
              H 16 -- C 7                   -0.13        2.16806
              H 4  -- C 6                   -0.12        2.16908
              H 7  -- C 5                   -0.12        2.17298
              H 8  -- C 5                   -0.14        2.17572
              H 1  -- C 2                   -0.12        2.17596
              H 18 -- C 6                   -0.12        2.17746
              H 20 -- C 6                   -0.12        2.17806
              H 6  -- C 4                   -0.12        2.17993
              H 5  -- C 4                   -0.13        2.18176
              H 19 -- C 6                   -0.12        2.18232
              H 2  -- C 2                   -0.12        2.18423
              H 10 -- C 4                   -0.11        2.19575
              H 6  -- H 14                  -0.04        2.27778
              H 11 -- Si 1                  -0.12        2.28911
              H 12 -- Si 1                  -0.14        2.29581
              H 13 -- Si 1                  -0.13        2.29733
              H 1  -- H 14                  -0.03        2.37609
              H 7  -- H 9                   -0.05        2.40784
              H 10 -- Si 1                  -0.12        2.42451
              H 2  -- H 15                  -0.03        2.42552
              H 6  -- H 7                   -0.04        2.42794
              H 5  -- H 8                   -0.04        2.43914
              H 8  -- H 10                  -0.05        2.43999
              H 9  -- Si 1                  -0.12        2.44397
              H 3  -- H 14                  -0.01        2.45266
              H 2  -- H 5                   -0.01        2.45403
              H 1  -- H 6                   -0.01        2.46983
              H 13 -- H 14                  -0.01        2.47507
              H 3  -- H 16                  -0.04        2.49475
              H 5  -- H 15                  -0.02        2.50028
              H 5  -- H 7                   -0.02        2.50049
              H 16 -- H 18                  -0.03        2.50052
               C 2 -- N 1                   -0.13        2.50299
               C 4 -- N 1                   -0.13        2.50753
              H 17 -- H 18                  -0.03        2.51111
              H 17 -- H 20                  -0.03        2.51174
              H 1  -- H 3                   -0.03        2.51875
               C 1 -- C 6                   -0.15        2.51910
              H 4  -- H 17                  -0.03        2.52447
              H 2  -- H 4                   -0.03        2.52741
               C 1 -- C 3                   -0.14        2.53117
              H 10 -- H 14                  -0.01        2.54158
              H 16 -- H 19                  -0.03        2.54182
              H 4  -- H 15                  -0.00        2.54294
               C 2 -- C 7                   -0.15        2.54393
              H 1  -- H 16                  -0.01        2.55470
              H 2  -- H 17                  -0.01        2.55842
              H 8  -- H 9                   -0.02        2.55930
              H 4  -- H 20                  -0.01        2.58881
              H 3  -- H 19                  -0.01        2.59520
              H 8  -- H 15                  -0.00        2.59690
               C 3 -- C 5                   -0.14        2.60213
               O 2 -- O 3                   -0.08        2.61508
              H 15 -- C 4                   -0.04        2.64681
              H 14 -- C 2                   -0.04        2.67457
              H 5  -- C 1                   -0.04        2.67652
              H 1  -- C 3                   -0.04        2.68327
              H 6  -- O 3                   -0.00        2.70493
              H 14 -- C 5                   -0.02        2.70805
              H 15 -- C 2                   -0.03        2.71728
              H 17 -- C 1                   -0.04        2.72655
              H 3  -- N 1                   -0.03        2.72768
              H 16 -- C 1                   -0.04        2.74648
              H 14 -- C 4                   -0.02        2.75278
               O 1 -- O 3                   -0.07        2.75719
              H 4  -- N 1                   -0.02        2.75942
              H 2  -- C 3                   -0.03        2.76334
               N 1 -- O 2                   -0.11        2.76336
              H 4  -- C 7                   -0.04        2.76427
              H 10 -- H 15                  -0.01        2.76675
               C 5 -- O 2                   -0.11        2.76997
              H 6  -- C 1                   -0.03        2.77124
               O 1 -- O 2                   -0.06        2.78037
              H 1  -- C 6                   -0.03        2.78394
              H 13 -- O 3                   -0.01        2.78708
              H 3  -- C 7                   -0.03        2.78846
              H 19 -- C 2                   -0.04        2.80201
              H 2  -- C 6                   -0.03        2.80595
              H 14 -- Si 1                  -0.04        2.80916
              H 20 -- C 2                   -0.04        2.81996
               C 5 -- O 1                   -0.10        2.82020
              H 6  -- O 2                   -0.00        2.82527
              H 10 -- O 2                   -0.01        2.83329
              H 8  -- N 1                   -0.02        2.85432
              H 9  -- O 1                   -0.01        2.88330
              H 1  -- H 5                   -0.01        2.88873
               C 4 -- Si 1                  -0.13        2.91431
              H 10 -- N 1                   -0.01        2.92766
              H 6  -- C 5                   -0.02        2.92803
              H 5  -- H 14                   0.03        2.94760
              H 6  -- H 15                   0.03        2.94769
              H 6  -- Si 1                  -0.02        2.95095
              H 1  -- H 15                   0.03        2.95479
              H 11 -- O 1                   -0.01        2.96538
               C 5 -- O 3                   -0.09        2.96698
              H 2  -- H 14                   0.03        2.96853
              H 12 -- O 3                   -0.01        2.99438
======================================================================
 
 
     Hirshfeld Analysis
     ------------------
Species   Ion     Hirshfeld Charge (e)
======================================
  H        1                 0.06
  H        2                 0.06
  H        3                 0.04
  H        4                 0.05
  H        5                 0.07
  H        6                 0.06
  H        7                 0.06
  H        8                 0.05
  H        9                 0.06
  H       10                 0.05
  H       11                 0.18
  H       12                 0.18
  H       13                 0.18
  H       14                 0.12
  H       15                 0.17
  H       16                 0.04
  H       17                 0.05
  H       18                 0.06
  H       19                 0.04
  H       20                 0.04
  C        1                 0.01
  C        2                -0.06
  C        3                 0.01
  C        4                -0.05
  C        5                -0.15
  C        6                -0.05
  C        7                -0.10
  N        1                 0.02
  O        1                -0.27
  O        2                -0.24
  O        3                -0.28
  Si       1                 0.48
======================================
 

Writing analysis data to Conf_0022.castep_bin

Writing model to Conf_0022.check
 
 A BibTeX formatted list of references used in this run has been written to 
 Conf_0022.bib
 
Initialisation time =     25.13 s
Calculation time    =    672.91 s
Finalisation time   =      1.15 s
Total time          =    699.19 s
Peak Memory Use     = 7912016 kB
 
Overall parallel efficiency rating: Satisfactory (66%)
 
Data was distributed by:-
G-vector (48-way); efficiency rating: Satisfactory (66%)
High Water Mark     = 1763576 kB
