 Job started on host drago31060177.mgmt.cc.csic.es
 at Sun Mar 31 01:25:51 2024

 +-------------------------------------------------+
 |                                                 |
 |      CCC   AA    SSS  TTTTT  EEEEE  PPPP        |
 |     C     A  A  S       T    E      P   P       |
 |     C     AAAA   SS     T    EEE    PPPP        |
 |     C     A  A     S    T    E      P           |
 |      CCC  A  A  SSS     T    EEEEE  P           |
 |                                                 |
 +-------------------------------------------------+
 |                                                 |
 | Materials Studio CASTEP version 2024            |
 | Ab Initio Total Energy Program                  |
 |                                                 |
 | Authors:                                        |
 | M. Segall, M. Probert, C. Pickard, P. Hasnip,   |
 | S. Clark, K. Refson, J. R. Yates,               |
 | A. Bartok-Partay, M. Payne                      |
 |                                                 |
 | Contributors:                                   |
 | P. Lindan, P. Haynes, J. White, V. Milman,      |
 | N. Govind, M. Gibson, P. Tulip, V. Cocula,      |
 | B. Montanari, D. Quigley, M. Glover,            |
 | L. Bernasconi, A. Perlov, M. Plummer,           |
 | E. McNellis, J. Meyer, J. Gale, D. Jochym       |
 | J. Aarons, B. Walker, R. Gillen, D. Jones       |
 | T. Green, I. J. Bush, C. J. Armstrong,          |
 | E. J. Higgins, E. L. Brown, M. S. McFly,        |
 | J. Wilkins, B-C. Shih, P. J. P. Byrne,          |
 | R. J. Maurer, J. C. Womack, J. Dziedzic,        |
 | L. LeBlanc, T. K. Stenczel, J. Kermode,         |
 | S. Sturniolo, B. Shi, B. Durham, M. Evans,      |
 | M. J. Smith, A. Tamerus, Z. Hawkhead,           |
 | V. Ravindran, T. Hollins, S. A. Joyce,          |
 | R. T. Strong, A. M. Reilly                      |
 |                                                 |
 | Copyright (c) 2000 - 2023                       |
 |                                                 |
 | Please cite                                     |
 |                                                 |
 |     "First principles methods using CASTEP"     |
 |                                                 |
 |         Zeitschrift fuer Kristallographie       |
 |           220(5-6) pp. 567-570 (2005)           |
 |                                                 |
 | S. J. Clark, M. D. Segall, C. J. Pickard,       |
 | P. J. Hasnip, M. J. Probert, K. Refson,         |
 | M. C. Payne                                     |
 |                                                 |
 |       in all publications arising from          |
 |              your use of CASTEP                 |
 |                                                 |
 +-------------------------------------------------+
 |                                                 |
 |              http://www.castep.org              |
 |                                                 |
 +-------------------------------------------------+
 
 
 This version was compiled for x86_64-rhel7-intel19.0 on Oct 24 2023
 Code version:    a9f326b
 Intel(R) Math Kernel Library Version 2019.0.4 
 Fundamental constants values: CODATA 2018
 
License checkout of MS_castep successful
 
 
 Atomic calculation performed for H: 1s1
 
 Converged in 41 iterations to an ae energy of -12.488 eV
 
 Identity difference: 2.63E-05
 
   ============================================================                
   | Pseudopotential Report - Date of generation 31-03-2024   |                
   ------------------------------------------------------------                
   | Element: H Ionic charge:  1.00 Level of theory: PBE      |                
   | Atomic Solver: Koelling-Harmon                           |                
   |                                                          |                
   |               Reference Electronic Structure             |                
   |         Orbital         Occupation         Energy        |                
   |            1s              1.000           -0.239        |                
   |                                                          |                
   |                 Pseudopotential Definition               |                
   |        Beta     l      e      Rc     scheme   norm       |                
   |          1      0   -0.239   0.599     qc      0         |                
   |          2      0    0.250   0.599     qc      0         |                
   |         loc     1    0.000   0.599     pn      0         |                
   |                                                          |                
   | Augmentation charge Rinner = 0.421                       |                
   | No partial core correction                               |                
   ------------------------------------------------------------                
   | "1|0.6|9|10|15|10UU(qc=8)[]"                             |                
   ------------------------------------------------------------                
   |      Author: Chris J. Pickard, Cambridge University      |                
   ============================================================                
 
 Doing a self consistent calculation for the test configuration
 
 Atomic calculation performed for H: 1s1
 
 Converged in 41 iterations to an ae energy of -12.488 eV
 
 ---------------------------------------
 AE eigenvalue nl 10 =       -0.23860176
 ---------------------------------------
 PS eigenvalue nl 10 =       -0.23857601
 ---------------------------------------
 Maximum eigenvalue error:   2.57E-05
 
 Derived cutoff energies: C=   1 M=   6 F=  10 E=  20
 
 Checking for ghost states up to   1.51185 Ha
 
 No Ghost States Identified
 
 ***************************************
 
 Atomic calculation performed for C: 1s2 2s2 2p2
 
 Converged in 54 iterations to an ae energy of -1027.632 eV
 
 Identity difference: 2.37E-04
 
   ============================================================                
   | Pseudopotential Report - Date of generation 31-03-2024   |                
   ------------------------------------------------------------                
   | Element: C Ionic charge:  4.00 Level of theory: PBE      |                
   | Atomic Solver: Koelling-Harmon                           |                
   |                                                          |                
   |               Reference Electronic Structure             |                
   |         Orbital         Occupation         Energy        |                
   |            2s              2.000           -0.505        |                
   |            2p              2.000           -0.194        |                
   |                                                          |                
   |                 Pseudopotential Definition               |                
   |        Beta     l      e      Rc     scheme   norm       |                
   |          1      0   -0.505   1.395     qc      0         |                
   |          2      0    0.250   1.395     qc      0         |                
   |          3      1   -0.194   1.395     qc      0         |                
   |          4      1    0.250   1.395     qc      0         |                
   |         loc     2    0.000   1.395     pn      0         |                
   |                                                          |                
   | Augmentation charge Rinner = 0.983                       |                
   | Partial core correction Rc = 0.983                       |                
   ------------------------------------------------------------                
   | "2|1.4|11|12|14.7|20UU:21UU(qc=7)[]"                     |                
   ------------------------------------------------------------                
   |      Author: Chris J. Pickard, Cambridge University      |                
   ============================================================                
 
 Doing a self consistent calculation for the test configuration
 
 Atomic calculation performed for C: 1s2 2s2 2p2
 
 Converged in 54 iterations to an ae energy of -1027.632 eV
 
 ---------------------------------------
 AE eigenvalue nl 10 =      -10.04653081
 AE eigenvalue nl 20 =       -0.50533429
 AE eigenvalue nl 21 =       -0.19423807
 ---------------------------------------
 PS eigenvalue nl 20 =       -0.50531853
 PS eigenvalue nl 21 =       -0.19422214
 ---------------------------------------
 Maximum eigenvalue error:   1.59E-05
 
 Derived cutoff energies: C=   6 M=  10 F=  12 E=  16
 
 Checking for ghost states up to   1.47183 Ha
 
 No Ghost States Identified
 
 ***************************************
 
 Atomic calculation performed for N: 1s2 2s2 2p3
 
 Converged in 55 iterations to an ae energy of -1481.742 eV
 
 Identity difference: 2.27E-04
 
   ============================================================                
   | Pseudopotential Report - Date of generation 31-03-2024   |                
   ------------------------------------------------------------                
   | Element: N Ionic charge:  5.00 Level of theory: PBE      |                
   | Atomic Solver: Koelling-Harmon                           |                
   |                                                          |                
   |               Reference Electronic Structure             |                
   |         Orbital         Occupation         Energy        |                
   |            2s              2.000           -0.683        |                
   |            2p              3.000           -0.261        |                
   |                                                          |                
   |                 Pseudopotential Definition               |                
   |        Beta     l      e      Rc     scheme   norm       |                
   |          1      0   -0.683   1.100     qc      0         |                
   |          2      0    0.250   1.100     qc      0         |                
   |          3      1   -0.261   1.100     qc      0         |                
   |          4      1    0.250   1.100     qc      0         |                
   |         loc     2    0.000   1.100     pn      0         |                
   |                                                          |                
   | Augmentation charge Rinner = 0.769                       |                
   | Partial core correction Rc = 0.769                       |                
   ------------------------------------------------------------                
   | "2|1.1|12|16|19|20UU:21UU(qc=7)[]"                       |                
   ------------------------------------------------------------                
   |      Author: Chris J. Pickard, Cambridge University      |                
   ============================================================                
 
 Doing a self consistent calculation for the test configuration
 
 Atomic calculation performed for N: 1s2 2s2 2p3
 
 Converged in 55 iterations to an ae energy of -1481.742 eV
 
 ---------------------------------------
 AE eigenvalue nl 10 =      -14.13820921
 AE eigenvalue nl 20 =       -0.68290611
 AE eigenvalue nl 21 =       -0.26054797
 ---------------------------------------
 PS eigenvalue nl 20 =       -0.68291221
 PS eigenvalue nl 21 =       -0.26051708
 ---------------------------------------
 Maximum eigenvalue error:   3.09E-05
 
 Derived cutoff energies: C=  10 M=  15 F=  18 E=  23
 
 Checking for ghost states up to   1.48495 Ha
 
 No Ghost States Identified
 
 ***************************************
 
 Atomic calculation performed for O: 1s2 2s2 2p4
 
 Converged in 61 iterations to an ae energy of -2040.902 eV
 
 Identity difference: 4.10E-04
 
   ============================================================                
   | Pseudopotential Report - Date of generation 31-03-2024   |                
   ------------------------------------------------------------                
   | Element: O Ionic charge:  6.00 Level of theory: PBE      |                
   | Atomic Solver: Koelling-Harmon                           |                
   |                                                          |                
   |               Reference Electronic Structure             |                
   |         Orbital         Occupation         Energy        |                
   |            2s              2.000           -0.881        |                
   |            2p              4.000           -0.332        |                
   |                                                          |                
   |                 Pseudopotential Definition               |                
   |        Beta     l      e      Rc     scheme   norm       |                
   |          1      0   -0.881   1.100     qc      0         |                
   |          2      0    0.250   1.100     qc      0         |                
   |          3      1   -0.332   1.100     qc      0         |                
   |          4      1    0.250   1.100     qc      0         |                
   |         loc     2    0.000   1.100     pn      0         |                
   |                                                          |                
   | Augmentation charge Rinner = 0.769                       |                
   | Partial core correction Rc = 0.769                       |                
   ------------------------------------------------------------                
   | "2|1.1|14|18|21|20UU:21UU(qc=7)[]"                       |                
   ------------------------------------------------------------                
   |      Author: Chris J. Pickard, Cambridge University      |                
   ============================================================                
 
 Doing a self consistent calculation for the test configuration
 
 Atomic calculation performed for O: 1s2 2s2 2p4
 
 Converged in 61 iterations to an ae energy of -2040.902 eV
 
 ---------------------------------------
 AE eigenvalue nl 10 =      -18.91475256
 AE eigenvalue nl 20 =       -0.88057101
 AE eigenvalue nl 21 =       -0.33186952
 ---------------------------------------
 PS eigenvalue nl 20 =       -0.88059206
 PS eigenvalue nl 21 =       -0.33182157
 ---------------------------------------
 Maximum eigenvalue error:   4.80E-05
 
 Derived cutoff energies: C=  14 M=  17 F=  20 E=  22
 
 Checking for ghost states up to   1.49452 Ha
 
 No Ghost States Identified
 
 ***************************************
 
 Atomic calculation performed for Si: 1s2 2s2 2p6 3s2 3p2
 
 Converged in 54 iterations to an ae energy of -7886.857 eV
 
 Identity difference: 1.35E-04
 
   ============================================================                
   | Pseudopotential Report - Date of generation 31-03-2024   |                
   ------------------------------------------------------------                
   | Element: Si Ionic charge:  4.00 Level of theory: PBE     |                
   | Atomic Solver: Koelling-Harmon                           |                
   |                                                          |                
   |               Reference Electronic Structure             |                
   |         Orbital         Occupation         Energy        |                
   |            3s              2.000           -0.397        |                
   |            3p              2.000           -0.150        |                
   |                                                          |                
   |                 Pseudopotential Definition               |                
   |        Beta     l      e      Rc     scheme   norm       |                
   |          1      0   -0.397   1.797     qc      0         |                
   |          2      0    0.250   1.797     qc      0         |                
   |          3      1   -0.150   1.797     qc      0         |                
   |          4      1    0.250   1.797     qc      0         |                
   |          5      2    0.000   1.797     qc      0         |                
   |          6      2    0.250   1.797     qc      0         |                
   |         loc     3    0.000   1.797     pn      0         |                
   |                                                          |                
   | Augmentation charge Rinner = 1.255                       |                
   | Partial core correction Rc = 1.255                       |                
   ------------------------------------------------------------                
   | "3|1.8|3.6|5|7|30UU:31UU:32UU[]"                         |                
   ------------------------------------------------------------                
   |      Author: Chris J. Pickard, Cambridge University      |                
   ============================================================                
 
 Doing a self consistent calculation for the test configuration
 
 Atomic calculation performed for Si: 1s2 2s2 2p6 3s2 3p2
 
 Converged in 54 iterations to an ae energy of -7886.857 eV
 
 ---------------------------------------
 AE eigenvalue nl 10 =      -65.63192903
 AE eigenvalue nl 20 =       -5.12654326
 AE eigenvalue nl 21 =       -3.51173659
 AE eigenvalue nl 30 =       -0.39736430
 AE eigenvalue nl 31 =       -0.14998156
 ---------------------------------------
 PS eigenvalue nl 30 =       -0.39734922
 PS eigenvalue nl 31 =       -0.14996719
 ---------------------------------------
 Maximum eigenvalue error:   1.51E-05
 
 Derived cutoff energies: C=   1 M=   3 F=   6 E=   6
 
 Checking for ghost states up to   1.41161 Ha
 
 No Ghost States Identified
 
 ***************************************
 
 Pseudo atomic calculation performed for H 1s1
 
 Converged in 13 iterations to a total energy of -12.4790 eV
 
 Pseudo atomic calculation performed for C 2s2 2p2
 
 Converged in 17 iterations to a total energy of -148.5208 eV
 
 Pseudo atomic calculation performed for N 2s2 2p3
 
 Converged in 21 iterations to a total energy of -268.1820 eV
 
 Pseudo atomic calculation performed for O 2s2 2p4
 
 Converged in 23 iterations to a total energy of -432.6536 eV
 
 Pseudo atomic calculation performed for Si 3s2 3p2
 
 Converged in 11 iterations to a total energy of -165.0683 eV
 Calculation parallelised over 48 processes.
 Data is distributed by G-vector(48-way)

 ************************************ Title ************************************
 CASTEP calculation from BIOVIA Materials Studio 2024

 ***************************** General Parameters ******************************
  
 output verbosity                               : normal  (1)
 write checkpoint data to                       : Conf_0026.check
 type of calculation                            : geometry optimization
 stress calculation                             : off
 density difference calculation                 : off
 electron localisation func (ELF) calculation   : off
 Hirshfeld analysis                             : on
 polarisation (Berry phase) analysis            : off
 molecular orbital projected DOS                : off
 deltaSCF calculation                           : off
 unlimited duration calculation
 timing information                             : on
 memory usage estimate                          : on
 write extra output files                       : on
 write final potential to formatted file        : off
 write final density to formatted file          : off
 write BibTeX reference list                    : on
 write OTFG pseudopotential files               : on
 write electrostatic potential file             : on
 write bands file                               : on
 checkpoint writing                             : both castep_bin and check files
  
 output         length unit                     : A
 output           mass unit                     : amu
 output           time unit                     : ps
 output         charge unit                     : e
 output           spin unit                     : hbar/2
 output         energy unit                     : eV
 output          force unit                     : eV/A
 output       velocity unit                     : A/ps
 output       pressure unit                     : GPa
 output     inv_length unit                     : 1/A
 output      frequency unit                     : cm-1
 output force constant unit                     : eV/A**2
 output         volume unit                     : A**3
 output   IR intensity unit                     : (D/A)**2/amu
 output         dipole unit                     : D
 output         efield unit                     : eV/A/e
 output        entropy unit                     : J/mol/K
 output    efield chi2 unit                     : pm/V
  
 wavefunctions paging                           : none
 random number generator seed                   :   12553900
 data distribution                              : optimal for this architecture
 optimization strategy                          : balance speed and memory

 *********************** Exchange-Correlation Parameters ***********************
  
 using functional                               : Perdew Burke Ernzerhof
 relativistic treatment                         : Koelling-Harmon
 DFT+D: Semi-empirical dispersion correction    : on
 SEDC with                                      : G06 correction scheme

 ************************* Pseudopotential Parameters **************************
  
 pseudopotential representation                 : reciprocal space
 <beta|phi> representation                      : reciprocal space
 spin-orbit coupling                            : off

 **************************** Basis Set Parameters *****************************
  
 plane wave basis set cut-off                   :   600.0000   eV
 size of standard grid                          :     1.5000
 size of   fine   gmax                          :    18.8237   1/A
 largest prime factor in FFT                    :          5
 finite basis set correction                    : none

 **************************** Electronic Parameters ****************************
  
 number of  electrons                           :  74.00    
 net charge of system                           : +1.000    
 treating system as non-spin-polarized
 number of bands                                :         37

 ********************* Electronic Minimization Parameters **********************
  
 Method: Treating system as non-metallic,
         and number of  SD  steps               :          1
         and number of  CG  steps               :          4
  
 total energy / atom convergence tol.           : 0.2000E-05   eV
 eigen-energy convergence tolerance             : 0.1000E-05   eV
 max force / atom convergence tol.              : ignored
 convergence tolerance window                   :          3   cycles
 max. number of SCF cycles                      :        100
 periodic dipole correction                     : NONE

 ************************** Density Mixing Parameters **************************
  
 density-mixing scheme                          : Pulay
 max. length of mixing history                  :         20
 charge density mixing amplitude                : 0.5000    
 cut-off energy for mixing                      :  600.0       eV
 charge density mixing g-vector                 :  1.500       1/A

 *********************** Population Analysis Parameters ************************
  
 Population analysis with cutoff                :  3.000       A
 Population analysis output                     : summary and pdos components

 ********************** Geometry Optimization Parameters ***********************
  
 optimization method                            : LBFGS
 max. no. of LBFGS updates                      : unbounded
 preconditioned LBFGS is activated
 preconditioner type                            : EXP
     stabilization constant                     :     0.1000
     parameter A                                :     3.0000
     nearest neighbor distance                  : automatic
     cut-off distance                           : automatic
     parameter mu                               : automatic
 variable cell method                           : fixed basis quality
 max. number of steps                           :        300
 estimated bulk modulus                         :  500.0       GPa
 estimated <frequency>                          :  1668.       cm-1
 geom line minimiser                            : on
 with line minimiser tolerance                  :     0.4000
 total energy convergence tolerance             : 0.2000E-04   eV/atom
        max ionic |force| tolerance             : 0.5000E-01   eV/A
 max ionic |displacement| tolerance             : 0.2000E-02   A
   max |stress component| tolerance             : 0.1000       GPa
 convergence tolerance window                   :          2   steps
 backup results every                           :          5   steps
 write geom trajectory file                     : on

 *******************************************************************************
  
 
                           -------------------------------
                                      Unit Cell
                           -------------------------------
        Real Lattice(A)                      Reciprocal Lattice(1/A)
    13.4840002    -0.0000006    -0.0000006        0.465973392   0.000000000   0.000000000
     0.0000000    20.4006996    -0.0000009        0.000000013   0.307988717   0.000000000
     0.0000000     0.0000000    45.0000000        0.000000006   0.000000006   0.139626340
 
                       Lattice parameters(A)       Cell Angles
                    a =     13.484000          alpha =   90.000003
                    b =     20.400700          beta  =   90.000003
                    c =     45.000000          gamma =   90.000003
 
                       Current cell volume =         12378.736702       A**3
                                   density =             0.015698   AMU/A**3
                                           =             0.026068     g/cm^3
 
                           -------------------------------
                                     Cell Contents
                           -------------------------------
                         Total number of ions in cell =   32
                      Total number of species in cell =    5
                        Max number of any one species =   20
 
            xxxxxxxxxxxxxxxxxxxxxxxxxxxxxxxxxxxxxxxxxxxxxxxxxxxxxxxxxxxx
            x  Element    Atom        Fractional coordinates of atoms  x
            x            Number           u          v          w      x
            x----------------------------------------------------------x
            x  H            1         0.462218   0.507211   0.517049   x 
            x  H            2         0.568762   0.559130   0.521476   x 
            x  H            3         0.409835   0.532639   0.569597   x 
            x  H            4         0.515254   0.583985   0.574089   x 
            x  H            5         0.406029   0.674848   0.484778   x 
            x  H            6         0.509524   0.622354   0.479660   x 
            x  H            7         0.355913   0.608624   0.446677   x 
            x  H            8         0.287458   0.580386   0.477169   x 
            x  H            9         0.341826   0.492854   0.442244   x 
            x  H           10         0.386579   0.476900   0.478136   x 
            x  H           11         0.599920   0.552872   0.404996   x 
            x  H           12         0.516313   0.416935   0.411251   x 
            x  H           13         0.670506   0.501647   0.466761   x 
            x  H           14         0.358412   0.603856   0.526564   x 
            x  H           15         0.457028   0.650161   0.530783   x 
            x  H           16         0.522208   0.435788   0.561554   x 
            x  H           17         0.627091   0.487110   0.566122   x 
            x  H           18         0.588482   0.427539   0.613297   x 
            x  H           19         0.467212   0.461800   0.613830   x 
            x  H           20         0.572818   0.513357   0.618441   x 
            x  C            1         0.492166   0.549908   0.528969   x 
            x  C            2         0.487513   0.539867   0.562564   x 
            x  C            3         0.431634   0.623609   0.487062   x 
            x  C            4         0.363107   0.580918   0.467747   x 
            x  C            5         0.394859   0.510624   0.459169   x 
            x  C            6         0.548814   0.480630   0.572795   x 
            x  C            7         0.544056   0.470298   0.606412   x 
            x  N            1         0.429386   0.610668   0.520041   x 
            x  O            1         0.548249   0.430613   0.428978   x 
            x  O            2         0.603832   0.514556   0.470425   x 
            x  O            3         0.545404   0.557899   0.418151   x 
            x  Si           1         0.525096   0.502091   0.443307   x 
            xxxxxxxxxxxxxxxxxxxxxxxxxxxxxxxxxxxxxxxxxxxxxxxxxxxxxxxxxxxx
 
 
                         No user defined ionic velocities
 
                           -------------------------------
                                   Details of Species
                           -------------------------------
 
                               Mass of species in AMU
                                    H    1.0080000
                                    C   12.0109997
                                    N   14.0070000
                                    O   15.9989996
                                    Si   28.0849991
 
                          Electric Quadrupole Moment (Barn)
                                    H    0.0028600 Isotope  2
                                    C    0.0332700 Isotope 11
                                    N    0.0204400 Isotope 14
                                    O   -0.0255800 Isotope 17
                                    Si    1.0000000 No Isotope Defined
 
                          Files used for pseudopotentials:
                                    H 1|0.6|9|10|15|10UU(qc=8)[]
                                    C 2|1.4|11|12|14.7|20UU:21UU(qc=7)[]
                                    N 2|1.1|12|16|19|20UU:21UU(qc=7)[]
                                    O 2|1.1|14|18|21|20UU:21UU(qc=7)[]
                                    Si 3|1.8|3.6|5|7|30UU:31UU:32UU[]
 
                           -------------------------------
                              k-Points For BZ Sampling
                           -------------------------------
                       MP grid size for SCF calculation is  1  1  1
                            with an offset of   0.000  0.000  0.000
                       Number of kpoints used =             1
 
                           -------------------------------
                               Symmetry and Constraints
                           -------------------------------
 
                      Maximum deviation from symmetry =  0.00000         ANG
 
                      Number of symmetry operations   =           1
                      Number of nonlinear constraints =           3
         There are no ionic constraints specified or generated for this cell
                      Point group of crystal =     1: C1, 1, 1
                      Space group of crystal =     1: P1, P 1
 
             Set iprint > 1 for details on symmetry rotations/translations
 
                         Centre of mass is NOT constrained
 
                         Number of cell constraints= 6
                         Cell constraints are:  0 0 0 0 0 0
 
                         External pressure/stress (GPa)
                          0.00000   0.00000   0.00000
                                    0.00000   0.00000
                                              0.00000
 
                                --------------------
                                  DFT-D parameters
                                --------------------
 
                          Dispersion-correction scheme : G06       
                        Parameter s6 :   0.750000 (default)
                        Parameter d  :  20.000000 (default)
 
        xxxxxxxxxxxxxxxxxxxxxxxxxxxxxxxxxxxxxxxxxxxxxxxxxxxxxxxxxxxxxxxxxxxx
        x              Atomic DFT-D parameters                             x
        x  Species      C6            R0                                   x
        x               eV A^6        Ang                                  x
        x------------------------------------------------------------------x
        x  H             1.4510       1.0010   (default)                   x
        x  C            18.1375       1.4520   (default)                   x
        x  N            12.7481       1.3970   (default)                   x
        x  O             7.2550       1.3420   (default)                   x
        x  Si           95.6622       1.7160   (default)                   x
        xxxxxxxxxxxxxxxxxxxxxxxxxxxxxxxxxxxxxxxxxxxxxxxxxxxxxxxxxxxxxxxxxxxx
 
 
+---------------- MEMORY AND SCRATCH DISK ESTIMATES PER PROCESS --------------+
|                                                     Memory          Disk    |
| Baseline code, static data and system overhead     6530.0 MB         0.0 MB |
| BLAS internal memory storage                          0.0 MB         0.0 MB |
| Model and support data                              540.6 MB         0.0 MB |
| Electronic energy minimisation requirements          31.8 MB         0.0 MB |
| Force calculation requirements                        6.8 MB         0.0 MB |
|                                               ----------------------------- |
| Approx. total storage required per process         7102.3 MB         0.0 MB |
|                                                                             |
| Requirements will fluctuate during execution and may exceed these estimates |
+-----------------------------------------------------------------------------+
Calculating approximate eigenstates for fixed initial Hamiltonian
Cut-off for approx. calculation is  119.774 eV
Improving approx. states at cut-off of  300.000 eV
Resetting cut-off to  600.000 eV
Calculating total energy with cut-off of  600.000 eV.
------------------------------------------------------------------------ <-- SCF
SCF loop      Energy                           Energy gain       Timer   <-- SCF
                                               per atom          (sec)   <-- SCF
------------------------------------------------------------------------ <-- SCF
Initial  -2.92878103E+003                                         31.32  <-- SCF
      1  -3.20279083E+003                    8.56280621E+000      32.15  <-- SCF
      2  -3.20307643E+003                    8.92481235E-003      32.93  <-- SCF
      3  -3.19279469E+003                   -3.21304244E-001      34.10  <-- SCF
      4  -3.19160398E+003                   -3.72096986E-002      35.25  <-- SCF
      5  -3.19102037E+003                   -1.82377219E-002      36.28  <-- SCF
      6  -3.19093190E+003                   -2.76468215E-003      37.61  <-- SCF
      7  -3.19087698E+003                   -1.71648271E-003      38.65  <-- SCF
      8  -3.19086646E+003                   -3.28532890E-004      39.81  <-- SCF
      9  -3.19085606E+003                   -3.25136822E-004      40.83  <-- SCF
     10  -3.19084121E+003                   -4.64008167E-004      41.89  <-- SCF
     11  -3.19081131E+003                   -9.34343812E-004      42.90  <-- SCF
     12  -3.19074687E+003                   -2.01375267E-003      43.95  <-- SCF
     13  -3.19068154E+003                   -2.04165691E-003      45.00  <-- SCF
     14  -3.19060483E+003                   -2.39713474E-003      46.01  <-- SCF
     15  -3.19055212E+003                   -1.64707132E-003      47.01  <-- SCF
     16  -3.19051565E+003                   -1.13992477E-003      48.01  <-- SCF
     17  -3.19048192E+003                   -1.05378032E-003      49.02  <-- SCF
     18  -3.19045685E+003                   -7.83438254E-004      50.01  <-- SCF
     19  -3.19042960E+003                   -8.51638564E-004      50.97  <-- SCF
     20  -3.19039529E+003                   -1.07219898E-003      51.96  <-- SCF
     21  -3.19037069E+003                   -7.68694038E-004      53.03  <-- SCF
     22  -3.19036323E+003                   -2.33357688E-004      54.06  <-- SCF
     23  -3.19036115E+003                   -6.48664969E-005      55.04  <-- SCF
     24  -3.19036240E+003                    3.89625932E-005      56.01  <-- SCF
     25  -3.19036793E+003                    1.72802921E-004      56.91  <-- SCF
     26  -3.19037182E+003                    1.21654900E-004      57.72  <-- SCF
     27  -3.19037636E+003                    1.41858655E-004      58.58  <-- SCF
     28  -3.19038042E+003                    1.26811482E-004      59.42  <-- SCF
     29  -3.19038229E+003                    5.84548885E-005      60.23  <-- SCF
     30  -3.19038508E+003                    8.71542294E-005      61.04  <-- SCF
     31  -3.19038693E+003                    5.79501233E-005      61.88  <-- SCF
     32  -3.19038854E+003                    5.03757096E-005      62.69  <-- SCF
     33  -3.19038974E+003                    3.73260362E-005      63.50  <-- SCF
     34  -3.19039083E+003                    3.42150205E-005      64.30  <-- SCF
     35  -3.19039183E+003                    3.10487230E-005      65.11  <-- SCF
     36  -3.19039241E+003                    1.83944309E-005      65.92  <-- SCF
     37  -3.19039290E+003                    1.51192244E-005      66.73  <-- SCF
     38  -3.19039327E+003                    1.15447827E-005      67.53  <-- SCF
     39  -3.19039369E+003                    1.31034951E-005      68.34  <-- SCF
     40  -3.19039398E+003                    9.20298690E-006      69.21  <-- SCF
     41  -3.19039431E+003                    1.01673801E-005      70.03  <-- SCF
     42  -3.19039452E+003                    6.60930630E-006      70.84  <-- SCF
     43  -3.19039471E+003                    5.99384072E-006      71.65  <-- SCF
     44  -3.19039483E+003                    3.82294897E-006      72.45  <-- SCF
     45  -3.19039493E+003                    3.08134193E-006      73.26  <-- SCF
     46  -3.19039499E+003                    1.68707322E-006      74.07  <-- SCF
     47  -3.19039502E+003                    9.93651342E-007      74.88  <-- SCF
     48  -3.19039504E+003                    6.39563530E-007      75.68  <-- SCF
------------------------------------------------------------------------ <-- SCF
 
Final energy =  -3190.395037828     eV
(energy not corrected for finite basis set)
 
(SEDC) Total Energy Correction : -0.823272E+00 eV

Dispersion corrected final energy* =  -3191.218309357     eV

Writing analysis data to Conf_0026.castep_bin

Writing model to Conf_0026.check

WARNING - nonlinear constraints cannot be used with LBFGS algorithm
        - consider setting geom_method=DELOCALIZED
 
        => Turning nonlinear constraints OFF
 
+---------------- MEMORY AND SCRATCH DISK ESTIMATES PER PROCESS --------------+
|                                                     Memory          Disk    |
| Model and support data                              550.1 MB         0.0 MB |
| Electronic energy minimisation requirements          31.8 MB         0.0 MB |
| Geometry minimisation requirements                   34.8 MB         0.0 MB |
|                                               ----------------------------- |
| Approx. total storage required per process          616.7 MB         0.0 MB |
|                                                                             |
| Requirements will fluctuate during execution and may exceed these estimates |
+-----------------------------------------------------------------------------+
 
 
 ************************************** Forces **************************************
 *                                                                                  *
 *                           Cartesian components (eV/A)                            *
 * -------------------------------------------------------------------------------- *
 *                         x                    y                    z              *
 *                                                                                  *
 * H               1      0.05096              0.28481             -0.07116         *
 * H               2     -0.29270              0.02039             -0.11209         *
 * H               3      0.01961              0.01997              0.01574         *
 * H               4     -0.03327              0.02295             -0.00267         *
 * H               5      0.04402             -0.14453              0.00202         *
 * H               6     -0.08169             -0.20090              0.17041         *
 * H               7      0.06225              0.00485              0.23912         *
 * H               8      0.07470              0.04446              0.12769         *
 * H               9      0.12926              0.03118              0.08441         *
 * H              10      0.10745             -0.08008             -0.08322         *
 * H              11      0.69527             -0.05965             -0.66611         *
 * H              12     -0.45694             -0.31709             -0.90712         *
 * H              13      0.94926             -0.30328             -0.12602         *
 * H              14     -0.68607             -0.09886              0.34429         *
 * H              15      0.21567              0.52445              0.42794         *
 * H              16      0.03180              0.12971             -0.03104         *
 * H              17     -0.13386              0.01037             -0.04294         *
 * H              18     -0.08333              0.12229             -0.11436         *
 * H              19      0.04126              0.00012             -0.02134         *
 * H              20     -0.03459             -0.02562             -0.01467         *
 * C               1     -0.18540              0.23830              0.63883         *
 * C               2     -0.03377              0.00675             -0.02762         *
 * C               3     -0.34801              0.71031             -0.63353         *
 * C               4      0.07669              0.05199             -0.25306         *
 * C               5      0.38862              0.21313              0.03374         *
 * C               6      0.15965             -0.20488             -0.07113         *
 * C               7     -0.03487              0.02335              0.14441         *
 * N               1      1.05418             -1.53770             -0.90020         *
 * O               1      0.49145             -0.41314              0.93914         *
 * O               2     -0.66193              0.10099              0.89769         *
 * O               3     -1.15552              0.77537              0.23952         *
 * Si              1     -0.37015              0.05000             -0.22669         *
 *                                                                                  *
 ************************************************************************************
 EXP precond LBFGS => estimated nearest neighbor distance :  1.625       A
 EXP precond LBFGS => estimated cutoff distance :  3.249       A
 doing test perturbation to get energy scale for EXP preconditioner
 
                           -------------------------------
                                     Cell Contents
                           -------------------------------
 
            xxxxxxxxxxxxxxxxxxxxxxxxxxxxxxxxxxxxxxxxxxxxxxxxxxxxxxxxxxxxxxxxx
            x  Element         Atom        Fractional coordinates of atoms  x
            x                 Number           u          v          w      x
            x---------------------------------------------------------------x
            x  H                 1         0.463344   0.507946   0.517287   x
            x  H                 2         0.569962   0.559788   0.521709   x
            x  H                 3         0.410892   0.533340   0.569761   x
            x  H                 4         0.516428   0.584597   0.574246   x
            x  H                 5         0.407080   0.675247   0.485054   x
            x  H                 6         0.510694   0.622884   0.479941   x
            x  H                 7         0.356878   0.609185   0.446990   x
            x  H                 8         0.288280   0.581005   0.477453   x
            x  H                 9         0.342765   0.493604   0.442561   x
            x  H                10         0.387599   0.477666   0.478419   x
            x  H                11         0.601125   0.553542   0.405338   x
            x  H                12         0.517488   0.417731   0.411590   x
            x  H                13         0.671692   0.502388   0.467055   x
            x  H                14         0.359382   0.604427   0.526789   x
            x  H                15         0.458148   0.650625   0.531003   x
            x  H                16         0.523387   0.436579   0.561731   x
            x  H                17         0.628293   0.487867   0.566291   x
            x  H                18         0.589687   0.428333   0.613392   x
            x  H                19         0.468343   0.462577   0.613925   x
            x  H                20         0.574019   0.514085   0.618528   x
            x  C                 1         0.493322   0.550582   0.529191   x
            x  C                 2         0.488665   0.540557   0.562739   x
            x  C                 3         0.432722   0.624137   0.487336   x
            x  C                 4         0.364085   0.581537   0.468041   x
            x  C                 5         0.395892   0.511355   0.459471   x
            x  C                 6         0.550007   0.481392   0.572955   x
            x  C                 7         0.545248   0.471069   0.606519   x
            x  N                 1         0.430471   0.611224   0.520275   x
            x  O                 1         0.549442   0.431406   0.429305   x
            x  O                 2         0.605037   0.515282   0.470716   x
            x  O                 3         0.546596   0.558560   0.418485   x
            x  Si                1         0.526277   0.502832   0.443623   x
            xxxxxxxxxxxxxxxxxxxxxxxxxxxxxxxxxxxxxxxxxxxxxxxxxxxxxxxxxxxxxxxxx
 
 
------------------------------------------------------------------------ <-- SCF
SCF loop      Energy                           Energy gain       Timer   <-- SCF
                                               per atom          (sec)   <-- SCF
------------------------------------------------------------------------ <-- SCF
Initial  -3.19172166E+003                                         77.73  <-- SCF
      1  -3.19037025E+003                   -4.22315685E-002      78.55  <-- SCF
      2  -3.19039531E+003                    7.82895980E-004      79.70  <-- SCF
      3  -3.19036974E+003                   -7.99131845E-004      80.71  <-- SCF
      4  -3.19038737E+003                    5.51228721E-004      81.73  <-- SCF
      5  -3.19038752E+003                    4.50231813E-006      82.58  <-- SCF
      6  -3.19038775E+003                    7.17092877E-006      83.36  <-- SCF
      7  -3.19038782E+003                    2.18601813E-006      84.19  <-- SCF
      8  -3.19038789E+003                    2.16342052E-006      84.97  <-- SCF
      9  -3.19038791E+003                    7.57358317E-007      85.75  <-- SCF
     10  -3.19038796E+003                    1.58487257E-006      86.53  <-- SCF
     11  -3.19038797E+003                    3.81798861E-007      87.32  <-- SCF
------------------------------------------------------------------------ <-- SCF
 
Final energy =  -3190.387974420     eV
(energy not corrected for finite basis set)
 
(SEDC) Total Energy Correction : -0.824710E+00 eV

Dispersion corrected final energy* =  -3191.212684589     eV
 
 ************************************** Forces **************************************
 *                                                                                  *
 *                           Cartesian components (eV/A)                            *
 * -------------------------------------------------------------------------------- *
 *                         x                    y                    z              *
 *                                                                                  *
 * H               1      0.04546              0.24528             -0.08337         *
 * H               2     -0.30195              0.03577             -0.11895         *
 * H               3      0.04841              0.01515              0.01692         *
 * H               4     -0.02792              0.08718              0.01779         *
 * H               5      0.03984             -0.07871             -0.01338         *
 * H               6     -0.12654             -0.19983              0.17566         *
 * H               7      0.05461              0.04030              0.20381         *
 * H               8      0.12431              0.05088              0.11147         *
 * H               9      0.13891              0.01679              0.08431         *
 * H              10      0.10407             -0.11493             -0.05683         *
 * H              11      0.69018             -0.05775             -0.66492         *
 * H              12     -0.46438             -0.32126             -0.90798         *
 * H              13      0.94812             -0.31682             -0.13907         *
 * H              14     -0.60960             -0.08280              0.32862         *
 * H              15      0.24363              0.58447              0.45703         *
 * H              16      0.02433              0.10142             -0.04688         *
 * H              17     -0.13304              0.02567             -0.05219         *
 * H              18     -0.08588              0.10202             -0.10471         *
 * H              19      0.06388             -0.00131             -0.01813         *
 * H              20     -0.03546              0.00325              0.00678         *
 * C               1     -0.17641              0.24465              0.61418         *
 * C               2     -0.07789             -0.01775             -0.01218         *
 * C               3     -0.31767              0.68915             -0.65377         *
 * C               4      0.04054              0.05157             -0.21870         *
 * C               5      0.39815              0.19186             -0.00668         *
 * C               6      0.16167             -0.20596             -0.09962         *
 * C               7     -0.06169              0.00169              0.17819         *
 * N               1      0.95841             -1.64979             -0.87037         *
 * O               1      0.50097             -0.42340              0.93413         *
 * O               2     -0.59626              0.11967              0.92794         *
 * O               3     -1.16852              0.81729              0.20701         *
 * Si              1     -0.40233              0.04625             -0.19614         *
 *                                                                                  *
 ************************************************************************************
 EXP precond LBFGS => estimated parameter mu :  1.000       eV/A**2
 LBFGS: finished iteration     0 with enthalpy= -3.19121831E+003 eV
  
 +-----------+-----------------+-----------------+------------+-----+ <-- LBFGS
 | Parameter |      value      |    tolerance    |    units   | OK? | <-- LBFGS
 +-----------+-----------------+-----------------+------------+-----+ <-- LBFGS
 |  dE/ion   |   0.000000E+000 |   2.000000E-005 |         eV | No  | <-- LBFGS
 |  |F|max   |   2.097118E+000 |   5.000000E-002 |       eV/A | No  | <-- LBFGS
 |  |dR|max  |   5.215471E-015 |   2.000000E-003 |          A | No  | <-- LBFGS
 +-----------+-----------------+-----------------+------------+-----+ <-- LBFGS
  

================================================================================
 Starting LBFGS iteration          1 ...
================================================================================
  
 +------------+-------------+-------------+-----------------+ <-- min LBFGS
 |    Step    |   lambda    |   F.delta'  |    enthalpy     | <-- min LBFGS
 +------------+-------------+-------------+-----------------+ <-- min LBFGS
 |  previous  |    0.000000 |    1.807157 |    -3191.218309 | <-- min LBFGS
 +------------+-------------+-------------+-----------------+ <-- min LBFGS
  

--------------------------------------------------------------------------------
 LBFGS: starting iteration         1 with trial guess (lambda=  0.679617)
--------------------------------------------------------------------------------
 
                           -------------------------------
                                     Cell Contents
                           -------------------------------
 
            xxxxxxxxxxxxxxxxxxxxxxxxxxxxxxxxxxxxxxxxxxxxxxxxxxxxxxxxxxxxxxxxx
            x  Element         Atom        Fractional coordinates of atoms  x
            x                 Number           u          v          w      x
            x---------------------------------------------------------------x
            x  H                 1         0.462796   0.508917   0.517419   x
            x  H                 2         0.566344   0.559413   0.521865   x
            x  H                 3         0.409463   0.533087   0.569847   x
            x  H                 4         0.514474   0.584455   0.574298   x
            x  H                 5         0.408170   0.674213   0.484117   x
            x  H                 6         0.510016   0.621604   0.479549   x
            x  H                 7         0.360001   0.609688   0.446997   x
            x  H                 8         0.291943   0.581392   0.477243   x
            x  H                 9         0.347810   0.494147   0.442466   x
            x  H                10         0.392181   0.477630   0.478015   x
            x  H                11         0.595572   0.558394   0.401445   x
            x  H                12         0.508561   0.407283   0.408677   x
            x  H                13         0.679421   0.497842   0.469615   x
            x  H                14         0.356654   0.601087   0.526980   x
            x  H                15         0.461280   0.650131   0.531375   x
            x  H                16         0.521616   0.437194   0.561443   x
            x  H                17         0.625041   0.487828   0.565980   x
            x  H                18         0.586128   0.429435   0.612942   x
            x  H                19         0.466011   0.462952   0.613741   x
            x  H                20         0.570934   0.514351   0.618368   x
            x  C                 1         0.491390   0.550646   0.530087   x
            x  C                 2         0.486813   0.540310   0.562776   x
            x  C                 3         0.432282   0.625116   0.485821   x
            x  C                 4         0.367248   0.581958   0.467274   x
            x  C                 5         0.401102   0.512318   0.459227   x
            x  C                 6         0.548366   0.480916   0.572682   x
            x  C                 7         0.542333   0.471528   0.606479   x
            x  N                 1         0.435040   0.605524   0.519064   x
            x  O                 1         0.546582   0.421899   0.429992   x
            x  O                 2         0.601996   0.512870   0.474529   x
            x  O                 3         0.530691   0.565803   0.416636   x
            x  Si                1         0.519245   0.501745   0.443144   x
            xxxxxxxxxxxxxxxxxxxxxxxxxxxxxxxxxxxxxxxxxxxxxxxxxxxxxxxxxxxxxxxxx
 
 
------------------------------------------------------------------------ <-- SCF
SCF loop      Energy                           Energy gain       Timer   <-- SCF
                                               per atom          (sec)   <-- SCF
------------------------------------------------------------------------ <-- SCF
Initial  -3.20509675E+003                                         88.70  <-- SCF
      1  -3.18463635E+003                   -6.39387510E-001      89.54  <-- SCF
      2  -3.18880718E+003                    1.30338654E-001      90.89  <-- SCF
      3  -3.18802724E+003                   -2.43733907E-002      92.07  <-- SCF
      4  -3.18812266E+003                    2.98204876E-003      93.25  <-- SCF
      5  -3.18817952E+003                    1.77677066E-003      94.27  <-- SCF
      6  -3.18818407E+003                    1.42407394E-004      95.48  <-- SCF
      7  -3.18818570E+003                    5.07393439E-005      96.38  <-- SCF
      8  -3.18818666E+003                    2.99375244E-005      97.19  <-- SCF
      9  -3.18818775E+003                    3.41259778E-005      98.10  <-- SCF
     10  -3.18818825E+003                    1.56939452E-005      98.91  <-- SCF
     11  -3.18818862E+003                    1.16744881E-005      99.71  <-- SCF
     12  -3.18818891E+003                    9.00682950E-006     100.50  <-- SCF
     13  -3.18818912E+003                    6.56533078E-006     101.28  <-- SCF
     14  -3.18818938E+003                    8.06274668E-006     102.06  <-- SCF
     15  -3.18818954E+003                    4.91160622E-006     102.85  <-- SCF
     16  -3.18818973E+003                    5.99352904E-006     103.64  <-- SCF
     17  -3.18818984E+003                    3.48991275E-006     104.43  <-- SCF
     18  -3.18818997E+003                    3.91759665E-006     105.22  <-- SCF
     19  -3.18819006E+003                    2.81455359E-006     106.02  <-- SCF
     20  -3.18819013E+003                    2.23097664E-006     106.82  <-- SCF
     21  -3.18819017E+003                    1.45504101E-006     107.62  <-- SCF
     22  -3.18819024E+003                    2.08979717E-006     108.41  <-- SCF
     23  -3.18819026E+003                    6.37620329E-007     109.21  <-- SCF
     24  -3.18819031E+003                    1.64132657E-006     110.02  <-- SCF
     25  -3.18819033E+003                    5.72606645E-007     110.82  <-- SCF
     26  -3.18819038E+003                    1.42635964E-006     111.63  <-- SCF
------------------------------------------------------------------------ <-- SCF
 
Final energy =  -3188.190377885     eV
(energy not corrected for finite basis set)
 
(SEDC) Total Energy Correction : -0.827467E+00 eV

Dispersion corrected final energy* =  -3189.017844986     eV
 
 ************************************** Forces **************************************
 *                                                                                  *
 *                           Cartesian components (eV/A)                            *
 * -------------------------------------------------------------------------------- *
 *                         x                    y                    z              *
 *                                                                                  *
 * H               1      0.18487             -0.35301              0.16450         *
 * H               2      0.31063             -0.23034              0.07293         *
 * H               3     -0.11665              0.00600              0.09215         *
 * H               4     -0.03001              0.04863              0.07643         *
 * H               5     -0.43997              1.40833              0.30613         *
 * H               6      0.36587              0.06715             -0.32051         *
 * H               7     -0.16524              0.30251             -0.75066         *
 * H               8      0.12242             -0.08494             -0.09341         *
 * H               9     -0.00692             -0.01653              0.06451         *
 * H              10      0.10415              0.14632             -0.18195         *
 * H              11     -3.42138              0.55559              2.70616         *
 * H              12      2.02271              1.38317              3.82125         *
 * H              13     -4.03899              1.13331              0.70411         *
 * H              14      2.30245              0.20280             -0.84301         *
 * H              15     -0.85513             -2.04328             -1.27764         *
 * H              16     -0.14711             -0.37240             -0.22159         *
 * H              17      0.44090              0.06494             -0.13188         *
 * H              18      0.27220             -0.42133              0.19226         *
 * H              19     -0.21074             -0.02503              0.02494         *
 * H              20      0.06005              0.16441              0.07662         *
 * C               1      0.85481             -1.31239             -1.24188         *
 * C               2     -0.09121              0.14330              0.62317         *
 * C               3      1.17107             -1.92580              0.89476         *
 * C               4     -0.48561             -0.28479              0.28478         *
 * C               5     -2.33775             -0.11838              0.91442         *
 * C               6     -0.38971              0.40747              0.51702         *
 * C               7     -0.06596              0.19485             -0.42400         *
 * N               1     -3.00315              4.17390              1.97840         *
 * O               1     -2.48503              1.24546             -2.79728         *
 * O               2      2.37880             -1.44104             -2.95108         *
 * O               3      3.19196             -2.54502             -0.93348         *
 * Si              1      4.50769             -0.47386             -1.34618         *
 *                                                                                  *
 ************************************************************************************
  
 +------------+-------------+-------------+-----------------+ <-- min LBFGS
 |    Step    |   lambda    |   F.delta'  |    enthalpy     | <-- min LBFGS
 +------------+-------------+-------------+-----------------+ <-- min LBFGS
 |  previous  |    0.000000 |    1.807157 |    -3191.218309 | <-- min LBFGS
 | trial step |    0.679617 |   -5.856517 |    -3189.017845 | <-- min LBFGS
 +------------+-------------+-------------+-----------------+ <-- min LBFGS
  

--------------------------------------------------------------------------------
 LBFGS: improving iteration         1 with line minimization (lambda=  0.160259)
--------------------------------------------------------------------------------
 
                           -------------------------------
                                     Cell Contents
                           -------------------------------
 
            xxxxxxxxxxxxxxxxxxxxxxxxxxxxxxxxxxxxxxxxxxxxxxxxxxxxxxxxxxxxxxxxx
            x  Element         Atom        Fractional coordinates of atoms  x
            x                 Number           u          v          w      x
            x---------------------------------------------------------------x
            x  H                 1         0.462355   0.507613   0.517136   x
            x  H                 2         0.568191   0.559197   0.521568   x
            x  H                 3         0.409747   0.532745   0.569656   x
            x  H                 4         0.515070   0.584096   0.574138   x
            x  H                 5         0.406534   0.674698   0.484622   x
            x  H                 6         0.509640   0.622177   0.479633   x
            x  H                 7         0.356877   0.608874   0.446752   x
            x  H                 8         0.288516   0.580623   0.477187   x
            x  H                 9         0.343237   0.493158   0.442296   x
            x  H                10         0.387900   0.477072   0.478107   x
            x  H                11         0.598895   0.554174   0.404159   x
            x  H                12         0.514485   0.414659   0.410644   x
            x  H                13         0.672609   0.500750   0.467434   x
            x  H                14         0.357997   0.603203   0.526662   x
            x  H                15         0.458031   0.650154   0.530923   x
            x  H                16         0.522068   0.436120   0.561528   x
            x  H                17         0.626608   0.487280   0.566088   x
            x  H                18         0.587927   0.427986   0.613213   x
            x  H                19         0.466928   0.462072   0.613809   x
            x  H                20         0.572373   0.513592   0.618424   x
            x  C                 1         0.491983   0.550082   0.529232   x
            x  C                 2         0.487348   0.539971   0.562614   x
            x  C                 3         0.431787   0.623965   0.486769   x
            x  C                 4         0.364083   0.581163   0.467636   x
            x  C                 5         0.396331   0.511023   0.459183   x
            x  C                 6         0.548708   0.480697   0.572768   x
            x  C                 7         0.543650   0.470588   0.606428   x
            x  N                 1         0.430719   0.609455   0.519811   x
            x  O                 1         0.547856   0.428558   0.429217   x
            x  O                 2         0.603399   0.514158   0.471393   x
            x  O                 3         0.541935   0.559763   0.417794   x
            x  Si                1         0.523716   0.502009   0.443269   x
            xxxxxxxxxxxxxxxxxxxxxxxxxxxxxxxxxxxxxxxxxxxxxxxxxxxxxxxxxxxxxxxxx
 
 
------------------------------------------------------------------------ <-- SCF
SCF loop      Energy                           Energy gain       Timer   <-- SCF
                                               per atom          (sec)   <-- SCF
------------------------------------------------------------------------ <-- SCF
Initial  -3.21657711E+003                                        113.01  <-- SCF
      1  -3.18913322E+003                   -8.57621711E-001     113.90  <-- SCF
      2  -3.19087438E+003                    5.44113730E-002     115.19  <-- SCF
      3  -3.19036296E+003                   -1.59819428E-002     116.34  <-- SCF
      4  -3.19046805E+003                    3.28416665E-003     117.48  <-- SCF
      5  -3.19051130E+003                    1.35153957E-003     118.50  <-- SCF
      6  -3.19051322E+003                    6.00080119E-005     119.53  <-- SCF
      7  -3.19051402E+003                    2.48731600E-005     120.42  <-- SCF
      8  -3.19051437E+003                    1.09643925E-005     121.20  <-- SCF
      9  -3.19051484E+003                    1.46472606E-005     122.09  <-- SCF
     10  -3.19051512E+003                    8.69743121E-006     122.87  <-- SCF
     11  -3.19051538E+003                    8.28218924E-006     123.65  <-- SCF
     12  -3.19051574E+003                    1.13060832E-005     124.44  <-- SCF
     13  -3.19051597E+003                    6.92386048E-006     125.22  <-- SCF
     14  -3.19051625E+003                    8.77615978E-006     126.01  <-- SCF
     15  -3.19051643E+003                    5.82627048E-006     126.79  <-- SCF
     16  -3.19051659E+003                    4.80453352E-006     127.58  <-- SCF
     17  -3.19051669E+003                    3.16118709E-006     128.37  <-- SCF
     18  -3.19051685E+003                    4.95443833E-006     129.22  <-- SCF
     19  -3.19051690E+003                    1.54428982E-006     130.03  <-- SCF
     20  -3.19051700E+003                    3.13006446E-006     130.83  <-- SCF
     21  -3.19051705E+003                    1.59664604E-006     131.62  <-- SCF
     22  -3.19051713E+003                    2.61092506E-006     132.42  <-- SCF
     23  -3.19051717E+003                    1.33872263E-006     133.22  <-- SCF
     24  -3.19051723E+003                    1.81795132E-006     134.03  <-- SCF
     25  -3.19051725E+003                    6.77205201E-007     134.83  <-- SCF
     26  -3.19051727E+003                    6.31505247E-007     135.63  <-- SCF
------------------------------------------------------------------------ <-- SCF
 
Final energy =  -3190.517273079     eV
(energy not corrected for finite basis set)
 
(SEDC) Total Energy Correction : -0.824136E+00 eV

Dispersion corrected final energy* =  -3191.341409533     eV
 
 ************************************** Forces **************************************
 *                                                                                  *
 *                           Cartesian components (eV/A)                            *
 * -------------------------------------------------------------------------------- *
 *                         x                    y                    z              *
 *                                                                                  *
 * H               1      0.08742              0.14769             -0.01771         *
 * H               2     -0.15225             -0.03565             -0.07084         *
 * H               3     -0.00632              0.01282              0.03714         *
 * H               4     -0.02828              0.02779              0.01861         *
 * H               5     -0.05956              0.17241              0.07402         *
 * H               6      0.03073             -0.14277              0.05263         *
 * H               7      0.00950              0.06537              0.02092         *
 * H               8      0.09297              0.01007              0.07864         *
 * H               9      0.09278              0.01566              0.08217         *
 * H              10      0.11508             -0.03049             -0.10601         *
 * H              11     -0.76866              0.11483              0.54519         *
 * H              12      0.46130              0.30666              0.81418         *
 * H              13     -0.80895              0.19176              0.12328         *
 * H              14      0.23462              0.02342              0.00453         *
 * H              15     -0.12755             -0.27754             -0.08655         *
 * H              16     -0.00304              0.01311             -0.07069         *
 * H              17     -0.00039              0.01749             -0.05981         *
 * H              18     -0.00052             -0.00143             -0.04196         *
 * H              19     -0.01319             -0.01015             -0.00887         *
 * H              20     -0.00616              0.01632              0.00467         *
 * C               1     -0.00859             -0.02736              0.16831         *
 * C               2     -0.04186              0.03914              0.11029         *
 * C               3     -0.01897              0.12197             -0.24523         *
 * C               4     -0.03801             -0.01386             -0.12762         *
 * C               5     -0.12576              0.10507              0.16750         *
 * C               6      0.03713             -0.06532              0.06567         *
 * C               7     -0.03384              0.05542              0.01266         *
 * N               1     -0.00856             -0.04230             -0.05608         *
 * O               1     -0.55053             -0.04608             -0.43339         *
 * O               2      0.37095             -0.46270             -0.32107         *
 * O               3      0.30541             -0.22435             -0.27439         *
 * Si              1      0.96312             -0.07700             -0.46023         *
 *                                                                                  *
 ************************************************************************************
  
 +------------+-------------+-------------+-----------------+ <-- min LBFGS
 |    Step    |   lambda    |   F.delta'  |    enthalpy     | <-- min LBFGS
 +------------+-------------+-------------+-----------------+ <-- min LBFGS
 |  previous  |    0.000000 |    1.807157 |    -3191.218309 | <-- min LBFGS
 | trial step |    0.679617 |   -5.856517 |    -3189.017845 | <-- min LBFGS
 |  line step |    0.160259 |   -0.547337 |    -3191.341410 | <-- min LBFGS
 +------------+-------------+-------------+-----------------+ <-- min LBFGS
  
 LBFGS: finished iteration     1 with enthalpy= -3.19134141E+003 eV
  
 +-----------+-----------------+-----------------+------------+-----+ <-- LBFGS
 | Parameter |      value      |    tolerance    |    units   | OK? | <-- LBFGS
 +-----------+-----------------+-----------------+------------+-----+ <-- LBFGS
 |  dE/ion   |   3.846880E-003 |   2.000000E-005 |         eV | No  | <-- LBFGS
 |  |F|max   |   1.070212E+000 |   5.000000E-002 |       eV/A | No  | <-- LBFGS
 |  |dR|max  |   6.239216E-002 |   2.000000E-003 |          A | No  | <-- LBFGS
 +-----------+-----------------+-----------------+------------+-----+ <-- LBFGS
  

================================================================================
 Starting LBFGS iteration          2 ...
================================================================================
  
 +------------+-------------+-------------+-----------------+ <-- min LBFGS
 |    Step    |   lambda    |   F.delta'  |    enthalpy     | <-- min LBFGS
 +------------+-------------+-------------+-----------------+ <-- min LBFGS
 |  previous  |    0.000000 |    0.588483 |    -3191.341410 | <-- min LBFGS
 +------------+-------------+-------------+-----------------+ <-- min LBFGS
  

--------------------------------------------------------------------------------
 LBFGS: starting iteration         2 with trial guess (lambda=  1.000000)
--------------------------------------------------------------------------------
 
                           -------------------------------
                                     Cell Contents
                           -------------------------------
 
            xxxxxxxxxxxxxxxxxxxxxxxxxxxxxxxxxxxxxxxxxxxxxxxxxxxxxxxxxxxxxxxxx
            x  Element         Atom        Fractional coordinates of atoms  x
            x                 Number           u          v          w      x
            x---------------------------------------------------------------x
            x  H                 1         0.463767   0.509293   0.517027   x
            x  H                 2         0.565139   0.558785   0.521296   x
            x  H                 3         0.408991   0.533305   0.569793   x
            x  H                 4         0.513755   0.584704   0.574192   x
            x  H                 5         0.408737   0.675637   0.483759   x
            x  H                 6         0.511400   0.620946   0.479052   x
            x  H                 7         0.362069   0.610527   0.446648   x
            x  H                 8         0.294838   0.581902   0.477075   x
            x  H                 9         0.351462   0.494667   0.442750   x
            x  H                10         0.395816   0.477822   0.477676   x
            x  H                11         0.582451   0.556490   0.405238   x
            x  H                12         0.516122   0.413155   0.414124   x
            x  H                13         0.664687   0.495889   0.468572   x
            x  H                14         0.359729   0.601131   0.526395   x
            x  H                15         0.460441   0.648134   0.530532   x
            x  H                16         0.521080   0.437351   0.560979   x
            x  H                17         0.624700   0.488100   0.565548   x
            x  H                18         0.585448   0.429743   0.612532   x
            x  H                19         0.465049   0.463306   0.613410   x
            x  H                20         0.570136   0.514897   0.618073   x
            x  C                 1         0.491452   0.550291   0.529800   x
            x  C                 2         0.486203   0.540544   0.562759   x
            x  C                 3         0.433541   0.625457   0.485115   x
            x  C                 4         0.369229   0.582400   0.466836   x
            x  C                 5         0.403340   0.512828   0.459373   x
            x  C                 6         0.547912   0.481030   0.572472   x
            x  C                 7         0.541444   0.472063   0.606146   x
            x  N                 1         0.435157   0.605567   0.518571   x
            x  O                 1         0.545944   0.425148   0.431602   x
            x  O                 2         0.599365   0.508056   0.472477   x
            x  O                 3         0.528877   0.562084   0.417969   x
            x  Si                1         0.529223   0.500428   0.442303   x
            xxxxxxxxxxxxxxxxxxxxxxxxxxxxxxxxxxxxxxxxxxxxxxxxxxxxxxxxxxxxxxxxx
 
 
------------------------------------------------------------------------ <-- SCF
SCF loop      Energy                           Energy gain       Timer   <-- SCF
                                               per atom          (sec)   <-- SCF
------------------------------------------------------------------------ <-- SCF
Initial  -3.22121685E+003                                        137.04  <-- SCF
      1  -3.18846559E+003                   -1.02347678E+000     137.89  <-- SCF
      2  -3.19003375E+003                    4.90048157E-002     139.19  <-- SCF
      3  -3.18972882E+003                   -9.52892699E-003     140.35  <-- SCF
      4  -3.18985240E+003                    3.86179966E-003     141.37  <-- SCF
      5  -3.18985959E+003                    2.24848137E-004     142.58  <-- SCF
      6  -3.18985970E+003                    3.32726459E-006     143.60  <-- SCF
      7  -3.18985905E+003                   -2.03837645E-005     144.57  <-- SCF
      8  -3.18985805E+003                   -3.10368416E-005     145.50  <-- SCF
      9  -3.18985783E+003                   -6.95222693E-006     146.38  <-- SCF
     10  -3.18985810E+003                    8.55943266E-006     147.22  <-- SCF
     11  -3.18985883E+003                    2.26170036E-005     148.06  <-- SCF
     12  -3.18985937E+003                    1.70641759E-005     148.84  <-- SCF
     13  -3.18986035E+003                    3.03649532E-005     149.65  <-- SCF
     14  -3.18986064E+003                    9.22651925E-006     150.44  <-- SCF
     15  -3.18986096E+003                    9.82346331E-006     151.22  <-- SCF
     16  -3.18986114E+003                    5.80381392E-006     152.01  <-- SCF
     17  -3.18986142E+003                    8.55005777E-006     152.80  <-- SCF
     18  -3.18986163E+003                    6.64701748E-006     153.59  <-- SCF
     19  -3.18986171E+003                    2.66476209E-006     154.38  <-- SCF
     20  -3.18986185E+003                    4.21877797E-006     155.18  <-- SCF
     21  -3.18986190E+003                    1.67112588E-006     155.98  <-- SCF
[...]
 * H              16      0.00069              0.00165             -0.00096         *
 * H              17     -0.00312              0.00147             -0.00033         *
 * H              18     -0.00143             -0.00047             -0.00103         *
 * H              19      0.00025              0.00189             -0.00030         *
 * H              20     -0.00085              0.00183              0.00188         *
 * C               1      0.00549              0.01127              0.00686         *
 * C               2     -0.00856              0.00251             -0.00405         *
 * C               3      0.00958              0.00145             -0.00189         *
 * C               4      0.00274             -0.01117             -0.00456         *
 * C               5     -0.00407              0.00270             -0.00345         *
 * C               6      0.00627             -0.00557              0.00091         *
 * C               7      0.00004             -0.00231             -0.00047         *
 * N               1      0.00045              0.00091              0.00521         *
 * O               1     -0.00155              0.00091              0.00011         *
 * O               2     -0.00105              0.00258              0.00152         *
 * O               3      0.00230              0.00023             -0.00122         *
 * Si              1     -0.00158             -0.00270             -0.00134         *
 *                                                                                  *
 ************************************************************************************
 
 Pseudo atomic calculation performed for H 1s1
 
 Converged in 13 iterations to a total energy of -12.4790 eV
 
 Pseudo atomic calculation performed for C 2s2 2p2
 
 Converged in 17 iterations to a total energy of -148.5208 eV
 
 Pseudo atomic calculation performed for N 2s2 2p3
 
 Converged in 21 iterations to a total energy of -268.1820 eV
 
 Pseudo atomic calculation performed for O 2s2 2p4
 
 Converged in 23 iterations to a total energy of -432.6536 eV
 
 Pseudo atomic calculation performed for Si 3s2 3p2
 
 Converged in 11 iterations to a total energy of -165.0683 eV
Charge spilling parameter for spin component 1 = 1.54%
 
            Orbital Populations       
     Ion    Atom   Orbital             Charge
  -------------------------------------------
      H     1      S                    0.713
      H     2      S                    0.683
      H     3      S                    0.735
      H     4      S                    0.735
      H     5      S                    0.679
      H     6      S                    0.692
      H     7      S                    0.672
      H     8      S                    0.735
      H     9      S                    0.697
      H    10      S                    0.753
      H    11      S                    0.459
      H    12      S                    0.456
      H    13      S                    0.466
      H    14      S                    0.518
      H    15      S                    0.504
      H    16      S                    0.730
      H    17      S                    0.729
      H    18      S                    0.703
      H    19      S                    0.727
      H    20      S                    0.727
      C     1      S                    1.288
      C     1      Px                   1.121
      C     1      Py                   0.920
      C     1      Pz                   1.042
      C     2      S                    1.297
      C     2      Px                   1.159
      C     2      Py                   1.116
      C     2      Pz                   0.951
      C     3      S                    1.304
      C     3      Px                   1.198
      C     3      Py                   1.180
      C     3      Pz                   0.729
      C     4      S                    1.303
      C     4      Px                   1.083
      C     4      Py                   0.985
      C     4      Pz                   1.168
      C     5      S                    1.400
      C     5      Px                   1.294
      C     5      Py                   1.036
      C     5      Pz                   1.224
      C     6      S                    1.304
      C     6      Px                   1.128
      C     6      Py                   1.042
      C     6      Pz                   1.034
      C     7      S                    1.399
      C     7      Px                   1.206
      C     7      Py                   1.211
      C     7      Pz                   0.977
      N     1      S                    1.591
      N     1      Px                   1.395
      N     1      Py                   1.351
      N     1      Pz                   1.302
      O     1      S                    1.855
      O     1      Px                   1.853
      O     1      Py                   1.718
      O     1      Pz                   1.665
      O     2      S                    1.857
      O     2      Px                   1.549
      O     2      Py                   1.862
      O     2      Pz                   1.843
      O     3      S                    1.854
      O     3      Px                   1.764
      O     3      Py                   1.825
      O     3      Pz                   1.656
     Si     1      S                    0.728
     Si     1      Px                   0.444
     Si     1      Py                   0.321
     Si     1      Pz                   0.355
  -------------------------------------------
                           Total:      74.000
  -------------------------------------------
 
     Atomic Populations (Mulliken)
     -----------------------------
Species          Ion     s       p       d       f      Total   Charge (e)
==========================================================================
  H               1     0.713   0.000   0.000   0.000   0.713     0.287
  H               2     0.683   0.000   0.000   0.000   0.683     0.317
  H               3     0.735   0.000   0.000   0.000   0.735     0.265
  H               4     0.735   0.000   0.000   0.000   0.735     0.265
  H               5     0.679   0.000   0.000   0.000   0.679     0.321
  H               6     0.692   0.000   0.000   0.000   0.692     0.308
  H               7     0.672   0.000   0.000   0.000   0.672     0.328
  H               8     0.735   0.000   0.000   0.000   0.735     0.265
  H               9     0.697   0.000   0.000   0.000   0.697     0.303
  H              10     0.753   0.000   0.000   0.000   0.753     0.247
  H              11     0.459   0.000   0.000   0.000   0.459     0.541
  H              12     0.456   0.000   0.000   0.000   0.456     0.544
  H              13     0.466   0.000   0.000   0.000   0.466     0.534
  H              14     0.518   0.000   0.000   0.000   0.518     0.482
  H              15     0.504   0.000   0.000   0.000   0.504     0.496
  H              16     0.730   0.000   0.000   0.000   0.730     0.270
  H              17     0.729   0.000   0.000   0.000   0.729     0.271
  H              18     0.703   0.000   0.000   0.000   0.703     0.297
  H              19     0.727   0.000   0.000   0.000   0.727     0.273
  H              20     0.727   0.000   0.000   0.000   0.727     0.273
  C               1     1.288   3.083   0.000   0.000   4.371    -0.371
  C               2     1.297   3.226   0.000   0.000   4.523    -0.523
  C               3     1.304   3.106   0.000   0.000   4.410    -0.410
  C               4     1.303   3.236   0.000   0.000   4.539    -0.539
  C               5     1.400   3.554   0.000   0.000   4.954    -0.954
  C               6     1.304   3.204   0.000   0.000   4.508    -0.508
  C               7     1.399   3.394   0.000   0.000   4.793    -0.793
  N               1     1.591   4.047   0.000   0.000   5.638    -0.638
  O               1     1.855   5.236   0.000   0.000   7.091    -1.091
  O               2     1.857   5.255   0.000   0.000   7.112    -1.112
  O               3     1.854   5.244   0.000   0.000   7.098    -1.098
  Si              1     0.728   1.121   0.000   0.000   1.848     2.152
==========================================================================
 
                 Bond                   Population      Length (A)
======================================================================
              H 12 -- O 1                    0.53        0.96875
              H 11 -- O 3                    0.53        0.96899
              H 13 -- O 2                    0.53        0.97034
              H 15 -- N 1                    0.67        1.02885
              H 14 -- N 1                    0.68        1.03033
              H 1  -- C 1                    0.89        1.09333
              H 2  -- C 1                    0.86        1.09627
              H 5  -- C 3                    0.85        1.09761
              H 6  -- C 3                    0.85        1.09794
              H 18 -- C 7                    0.81        1.09797
              H 19 -- C 7                    0.81        1.09933
              H 7  -- C 4                    0.84        1.09997
              H 20 -- C 7                    0.81        1.10037
              H 10 -- C 5                    0.84        1.10064
              H 17 -- C 6                    0.84        1.10143
              H 9  -- C 5                    0.82        1.10250
              H 16 -- C 6                    0.84        1.10308
              H 3  -- C 2                    0.85        1.10386
              H 4  -- C 2                    0.84        1.10451
              H 8  -- C 4                    0.83        1.10509
               C 1 -- N 1                    0.50        1.51607
               C 1 -- C 2                    0.72        1.51681
               C 3 -- N 1                    0.49        1.51996
               C 3 -- C 4                    0.70        1.52487
               C 6 -- C 7                    0.65        1.52694
               C 2 -- C 6                    0.68        1.53346
               C 4 -- C 5                    0.65        1.54031
               O 1 -- Si 1                   0.52        1.64103
              H 14 -- H 15                  -0.11        1.64144
               O 3 -- Si 1                   0.50        1.64660
               O 2 -- Si 1                   0.47        1.66141
              H 9  -- H 10                  -0.11        1.74444
              H 7  -- H 8                   -0.10        1.75758
              H 16 -- H 17                  -0.12        1.76549
              H 1  -- H 2                   -0.11        1.76569
              H 18 -- H 19                  -0.10        1.77584
              H 3  -- H 4                   -0.12        1.77716
              H 19 -- H 20                  -0.10        1.77829
              H 18 -- H 20                  -0.10        1.77960
              H 5  -- H 6                   -0.10        1.78865
               C 5 -- Si 1                   0.61        1.87886
              H 1  -- H 10                  -0.06        1.99995
              H 15 -- C 1                   -0.13        2.07400
              H 14 -- C 1                   -0.13        2.08172
              H 14 -- C 3                   -0.12        2.09363
              H 7  -- C 3                   -0.13        2.09446
              H 15 -- C 3                   -0.13        2.09480
              H 5  -- N 1                   -0.12        2.09621
              H 2  -- N 1                   -0.11        2.10721
              H 1  -- N 1                   -0.11        2.10929
              H 6  -- N 1                   -0.11        2.10989
              H 9  -- C 4                   -0.12        2.13735
              H 7  -- C 5                   -0.13        2.14339
              H 8  -- C 3                   -0.14        2.15589
              H 17 -- C 2                   -0.14        2.15839
              H 5  -- C 4                   -0.13        2.15903
              H 3  -- C 1                   -0.14        2.15982
              H 3  -- C 6                   -0.12        2.16217
              H 16 -- C 2                   -0.13        2.16247
              H 4  -- C 1                   -0.13        2.16723
              H 16 -- C 7                   -0.13        2.16774
              H 17 -- C 7                   -0.13        2.16812
              H 4  -- C 6                   -0.12        2.16859
              H 1  -- C 2                   -0.13        2.17177
              H 18 -- C 6                   -0.12        2.17315
              H 19 -- C 6                   -0.12        2.17737
              H 20 -- C 6                   -0.12        2.18143
              H 2  -- C 2                   -0.11        2.19166
              H 8  -- C 5                   -0.14        2.19223
              H 6  -- C 4                   -0.11        2.19244
              H 10 -- C 4                   -0.11        2.21625
              H 5  -- H 15                  -0.05        2.24793
              H 13 -- Si 1                  -0.14        2.26170
              H 12 -- Si 1                  -0.13        2.28268
              H 11 -- Si 1                  -0.13        2.30026
              H 5  -- H 7                   -0.05        2.32718
              H 7  -- H 9                   -0.04        2.38251
              H 8  -- H 14                  -0.01        2.39147
              H 2  -- H 15                  -0.03        2.40386
              H 1  -- H 14                  -0.03        2.42074
              H 9  -- Si 1                  -0.12        2.43056
              H 2  -- H 6                   -0.02        2.43915
              H 4  -- H 15                  -0.00        2.47318
              H 10 -- Si 1                  -0.12        2.48060
              H 3  -- H 14                  -0.00        2.48299
              H 5  -- H 14                  -0.01        2.48469
              H 8  -- H 9                   -0.03        2.49321
              H 17 -- H 18                  -0.03        2.49742
              H 4  -- H 17                  -0.04        2.49980
               C 2 -- N 1                   -0.14        2.50249
              H 1  -- H 3                   -0.04        2.50533
               C 1 -- C 6                   -0.15        2.50597
              H 6  -- H 15                  -0.01        2.50646
              H 16 -- H 18                  -0.03        2.51153
              H 16 -- H 19                  -0.03        2.51815
              H 3  -- H 16                  -0.03        2.52086
              H 5  -- H 8                   -0.02        2.52681
              H 1  -- H 16                  -0.01        2.52841
              H 8  -- H 10                  -0.04        2.53474
              H 6  -- O 2                   -0.00        2.53530
               C 2 -- C 7                   -0.15        2.53946
              H 17 -- H 20                  -0.03        2.54235
               C 4 -- N 1                   -0.13        2.54890
              H 6  -- H 7                   -0.01        2.55910
              H 2  -- H 4                   -0.03        2.56121
              H 2  -- H 17                  -0.01        2.56127
              H 3  -- H 19                  -0.01        2.57332
              H 2  -- O 2                   -0.00        2.57500
               C 1 -- C 3                   -0.12        2.58753
              H 4  -- H 20                  -0.01        2.58917
               O 1 -- O 2                   -0.08        2.62101
               C 3 -- C 5                   -0.14        2.63055
              H 14 -- C 4                   -0.05        2.64770
              H 14 -- C 2                   -0.04        2.66263
              H 1  -- C 5                   -0.04        2.66664
              H 15 -- C 2                   -0.03        2.67219
              H 13 -- O 1                   -0.01        2.68829
              H 6  -- C 1                   -0.05        2.69207
              H 16 -- C 1                   -0.04        2.70473
              H 8  -- N 1                   -0.04        2.72799
              H 17 -- C 1                   -0.04        2.73721
              H 7  -- O 3                   -0.00        2.73909
              H 4  -- N 1                   -0.03        2.74023
              H 3  -- C 7                   -0.04        2.75084
               O 2 -- O 3                   -0.07        2.75480
              H 3  -- N 1                   -0.02        2.75834
               C 5 -- O 3                   -0.11        2.76150
               O 1 -- O 3                   -0.07        2.76321
              H 1  -- C 3                   -0.02        2.78085
              H 2  -- C 3                   -0.03        2.78147
              H 2  -- C 6                   -0.03        2.78507
              H 1  -- C 6                   -0.03        2.78614
              H 4  -- C 7                   -0.03        2.78655
              H 20 -- C 2                   -0.04        2.79537
              H 19 -- C 2                   -0.04        2.81532
              H 6  -- C 5                   -0.03        2.83510
               C 5 -- O 2                   -0.10        2.85722
              H 1  -- O 2                   -0.00        2.87193
               C 4 -- Si 1                  -0.13        2.89291
              H 6  -- Si 1                  -0.03        2.89767
              H 1  -- H 6                   -0.00        2.92698
              H 1  -- H 15                   0.04        2.94984
              H 2  -- H 14                   0.03        2.95520
              H 6  -- H 14                   0.03        2.95625
               C 5 -- O 1                   -0.08        2.95938
              H 10 -- C 1                   -0.04        2.96921
              H 4  -- H 14                  -0.00        2.98009
              H 1  -- C 4                   -0.01        2.98411
              H 12 -- O 3                   -0.01        2.98582
======================================================================
 
 
     Hirshfeld Analysis
     ------------------
Species   Ion     Hirshfeld Charge (e)
======================================
  H        1                 0.06
  H        2                 0.06
  H        3                 0.05
  H        4                 0.05
  H        5                 0.07
  H        6                 0.06
  H        7                 0.06
  H        8                 0.05
  H        9                 0.06
  H       10                 0.04
  H       11                 0.18
  H       12                 0.18
  H       13                 0.17
  H       14                 0.17
  H       15                 0.18
  H       16                 0.04
  H       17                 0.04
  H       18                 0.05
  H       19                 0.04
  H       20                 0.05
  C        1                 0.01
  C        2                -0.06
  C        3                 0.01
  C        4                -0.05
  C        5                -0.15
  C        6                -0.05
  C        7                -0.10
  N        1                 0.04
  O        1                -0.28
  O        2                -0.28
  O        3                -0.28
  Si       1                 0.47
======================================
 

Writing analysis data to Conf_0026.castep_bin

Writing model to Conf_0026.check
 
 A BibTeX formatted list of references used in this run has been written to 
 Conf_0026.bib
 
Initialisation time =     25.13 s
Calculation time    =    849.94 s
Finalisation time   =      1.15 s
Total time          =    876.22 s
Peak Memory Use     = 7911708 kB
 
Overall parallel efficiency rating: Satisfactory (67%)
 
Data was distributed by:-
G-vector (48-way); efficiency rating: Satisfactory (67%)
High Water Mark     = 1887904 kB
