 Job started on host drago31060179.mgmt.cc.csic.es
 at Sun Mar 31 00:50:16 2024

 +-------------------------------------------------+
 |                                                 |
 |      CCC   AA    SSS  TTTTT  EEEEE  PPPP        |
 |     C     A  A  S       T    E      P   P       |
 |     C     AAAA   SS     T    EEE    PPPP        |
 |     C     A  A     S    T    E      P           |
 |      CCC  A  A  SSS     T    EEEEE  P           |
 |                                                 |
 +-------------------------------------------------+
 |                                                 |
 | Materials Studio CASTEP version 2024            |
 | Ab Initio Total Energy Program                  |
 |                                                 |
 | Authors:                                        |
 | M. Segall, M. Probert, C. Pickard, P. Hasnip,   |
 | S. Clark, K. Refson, J. R. Yates,               |
 | A. Bartok-Partay, M. Payne                      |
 |                                                 |
 | Contributors:                                   |
 | P. Lindan, P. Haynes, J. White, V. Milman,      |
 | N. Govind, M. Gibson, P. Tulip, V. Cocula,      |
 | B. Montanari, D. Quigley, M. Glover,            |
 | L. Bernasconi, A. Perlov, M. Plummer,           |
 | E. McNellis, J. Meyer, J. Gale, D. Jochym       |
 | J. Aarons, B. Walker, R. Gillen, D. Jones       |
 | T. Green, I. J. Bush, C. J. Armstrong,          |
 | E. J. Higgins, E. L. Brown, M. S. McFly,        |
 | J. Wilkins, B-C. Shih, P. J. P. Byrne,          |
 | R. J. Maurer, J. C. Womack, J. Dziedzic,        |
 | L. LeBlanc, T. K. Stenczel, J. Kermode,         |
 | S. Sturniolo, B. Shi, B. Durham, M. Evans,      |
 | M. J. Smith, A. Tamerus, Z. Hawkhead,           |
 | V. Ravindran, T. Hollins, S. A. Joyce,          |
 | R. T. Strong, A. M. Reilly                      |
 |                                                 |
 | Copyright (c) 2000 - 2023                       |
 |                                                 |
 | Please cite                                     |
 |                                                 |
 |     "First principles methods using CASTEP"     |
 |                                                 |
 |         Zeitschrift fuer Kristallographie       |
 |           220(5-6) pp. 567-570 (2005)           |
 |                                                 |
 | S. J. Clark, M. D. Segall, C. J. Pickard,       |
 | P. J. Hasnip, M. J. Probert, K. Refson,         |
 | M. C. Payne                                     |
 |                                                 |
 |       in all publications arising from          |
 |              your use of CASTEP                 |
 |                                                 |
 +-------------------------------------------------+
 |                                                 |
 |              http://www.castep.org              |
 |                                                 |
 +-------------------------------------------------+
 
 
 This version was compiled for x86_64-rhel7-intel19.0 on Oct 24 2023
 Code version:    a9f326b
 Intel(R) Math Kernel Library Version 2019.0.4 
 Fundamental constants values: CODATA 2018
 
License checkout of MS_castep successful
 
 
 Atomic calculation performed for H: 1s1
 
 Converged in 41 iterations to an ae energy of -12.488 eV
 
 Identity difference: 2.63E-05
 
   ============================================================                
   | Pseudopotential Report - Date of generation 31-03-2024   |                
   ------------------------------------------------------------                
   | Element: H Ionic charge:  1.00 Level of theory: PBE      |                
   | Atomic Solver: Koelling-Harmon                           |                
   |                                                          |                
   |               Reference Electronic Structure             |                
   |         Orbital         Occupation         Energy        |                
   |            1s              1.000           -0.239        |                
   |                                                          |                
   |                 Pseudopotential Definition               |                
   |        Beta     l      e      Rc     scheme   norm       |                
   |          1      0   -0.239   0.599     qc      0         |                
   |          2      0    0.250   0.599     qc      0         |                
   |         loc     1    0.000   0.599     pn      0         |                
   |                                                          |                
   | Augmentation charge Rinner = 0.421                       |                
   | No partial core correction                               |                
   ------------------------------------------------------------                
   | "1|0.6|9|10|15|10UU(qc=8)[]"                             |                
   ------------------------------------------------------------                
   |      Author: Chris J. Pickard, Cambridge University      |                
   ============================================================                
 
 Doing a self consistent calculation for the test configuration
 
 Atomic calculation performed for H: 1s1
 
 Converged in 41 iterations to an ae energy of -12.488 eV
 
 ---------------------------------------
 AE eigenvalue nl 10 =       -0.23860176
 ---------------------------------------
 PS eigenvalue nl 10 =       -0.23857601
 ---------------------------------------
 Maximum eigenvalue error:   2.57E-05
 
 Derived cutoff energies: C=   1 M=   6 F=  10 E=  20
 
 Checking for ghost states up to   1.51185 Ha
 
 No Ghost States Identified
 
 ***************************************
 
 Atomic calculation performed for C: 1s2 2s2 2p2
 
 Converged in 54 iterations to an ae energy of -1027.632 eV
 
 Identity difference: 2.37E-04
 
   ============================================================                
   | Pseudopotential Report - Date of generation 31-03-2024   |                
   ------------------------------------------------------------                
   | Element: C Ionic charge:  4.00 Level of theory: PBE      |                
   | Atomic Solver: Koelling-Harmon                           |                
   |                                                          |                
   |               Reference Electronic Structure             |                
   |         Orbital         Occupation         Energy        |                
   |            2s              2.000           -0.505        |                
   |            2p              2.000           -0.194        |                
   |                                                          |                
   |                 Pseudopotential Definition               |                
   |        Beta     l      e      Rc     scheme   norm       |                
   |          1      0   -0.505   1.395     qc      0         |                
   |          2      0    0.250   1.395     qc      0         |                
   |          3      1   -0.194   1.395     qc      0         |                
   |          4      1    0.250   1.395     qc      0         |                
   |         loc     2    0.000   1.395     pn      0         |                
   |                                                          |                
   | Augmentation charge Rinner = 0.983                       |                
   | Partial core correction Rc = 0.983                       |                
   ------------------------------------------------------------                
   | "2|1.4|11|12|14.7|20UU:21UU(qc=7)[]"                     |                
   ------------------------------------------------------------                
   |      Author: Chris J. Pickard, Cambridge University      |                
   ============================================================                
 
 Doing a self consistent calculation for the test configuration
 
 Atomic calculation performed for C: 1s2 2s2 2p2
 
 Converged in 54 iterations to an ae energy of -1027.632 eV
 
 ---------------------------------------
 AE eigenvalue nl 10 =      -10.04653081
 AE eigenvalue nl 20 =       -0.50533429
 AE eigenvalue nl 21 =       -0.19423807
 ---------------------------------------
 PS eigenvalue nl 20 =       -0.50531853
 PS eigenvalue nl 21 =       -0.19422214
 ---------------------------------------
 Maximum eigenvalue error:   1.59E-05
 
 Derived cutoff energies: C=   6 M=  10 F=  12 E=  16
 
 Checking for ghost states up to   1.47183 Ha
 
 No Ghost States Identified
 
 ***************************************
 
 Atomic calculation performed for N: 1s2 2s2 2p3
 
 Converged in 55 iterations to an ae energy of -1481.742 eV
 
 Identity difference: 2.27E-04
 
   ============================================================                
   | Pseudopotential Report - Date of generation 31-03-2024   |                
   ------------------------------------------------------------                
   | Element: N Ionic charge:  5.00 Level of theory: PBE      |                
   | Atomic Solver: Koelling-Harmon                           |                
   |                                                          |                
   |               Reference Electronic Structure             |                
   |         Orbital         Occupation         Energy        |                
   |            2s              2.000           -0.683        |                
   |            2p              3.000           -0.261        |                
   |                                                          |                
   |                 Pseudopotential Definition               |                
   |        Beta     l      e      Rc     scheme   norm       |                
   |          1      0   -0.683   1.100     qc      0         |                
   |          2      0    0.250   1.100     qc      0         |                
   |          3      1   -0.261   1.100     qc      0         |                
   |          4      1    0.250   1.100     qc      0         |                
   |         loc     2    0.000   1.100     pn      0         |                
   |                                                          |                
   | Augmentation charge Rinner = 0.769                       |                
   | Partial core correction Rc = 0.769                       |                
   ------------------------------------------------------------                
   | "2|1.1|12|16|19|20UU:21UU(qc=7)[]"                       |                
   ------------------------------------------------------------                
   |      Author: Chris J. Pickard, Cambridge University      |                
   ============================================================                
 
 Doing a self consistent calculation for the test configuration
 
 Atomic calculation performed for N: 1s2 2s2 2p3
 
 Converged in 55 iterations to an ae energy of -1481.742 eV
 
 ---------------------------------------
 AE eigenvalue nl 10 =      -14.13820921
 AE eigenvalue nl 20 =       -0.68290611
 AE eigenvalue nl 21 =       -0.26054797
 ---------------------------------------
 PS eigenvalue nl 20 =       -0.68291221
 PS eigenvalue nl 21 =       -0.26051708
 ---------------------------------------
 Maximum eigenvalue error:   3.09E-05
 
 Derived cutoff energies: C=  10 M=  15 F=  18 E=  23
 
 Checking for ghost states up to   1.48495 Ha
 
 No Ghost States Identified
 
 ***************************************
 
 Atomic calculation performed for O: 1s2 2s2 2p4
 
 Converged in 61 iterations to an ae energy of -2040.902 eV
 
 Identity difference: 4.10E-04
 
   ============================================================                
   | Pseudopotential Report - Date of generation 31-03-2024   |                
   ------------------------------------------------------------                
   | Element: O Ionic charge:  6.00 Level of theory: PBE      |                
   | Atomic Solver: Koelling-Harmon                           |                
   |                                                          |                
   |               Reference Electronic Structure             |                
   |         Orbital         Occupation         Energy        |                
   |            2s              2.000           -0.881        |                
   |            2p              4.000           -0.332        |                
   |                                                          |                
   |                 Pseudopotential Definition               |                
   |        Beta     l      e      Rc     scheme   norm       |                
   |          1      0   -0.881   1.100     qc      0         |                
   |          2      0    0.250   1.100     qc      0         |                
   |          3      1   -0.332   1.100     qc      0         |                
   |          4      1    0.250   1.100     qc      0         |                
   |         loc     2    0.000   1.100     pn      0         |                
   |                                                          |                
   | Augmentation charge Rinner = 0.769                       |                
   | Partial core correction Rc = 0.769                       |                
   ------------------------------------------------------------                
   | "2|1.1|14|18|21|20UU:21UU(qc=7)[]"                       |                
   ------------------------------------------------------------                
   |      Author: Chris J. Pickard, Cambridge University      |                
   ============================================================                
 
 Doing a self consistent calculation for the test configuration
 
 Atomic calculation performed for O: 1s2 2s2 2p4
 
 Converged in 61 iterations to an ae energy of -2040.902 eV
 
 ---------------------------------------
 AE eigenvalue nl 10 =      -18.91475256
 AE eigenvalue nl 20 =       -0.88057101
 AE eigenvalue nl 21 =       -0.33186952
 ---------------------------------------
 PS eigenvalue nl 20 =       -0.88059206
 PS eigenvalue nl 21 =       -0.33182157
 ---------------------------------------
 Maximum eigenvalue error:   4.80E-05
 
 Derived cutoff energies: C=  14 M=  17 F=  20 E=  22
 
 Checking for ghost states up to   1.49452 Ha
 
 No Ghost States Identified
 
 ***************************************
 
 Atomic calculation performed for Si: 1s2 2s2 2p6 3s2 3p2
 
 Converged in 54 iterations to an ae energy of -7886.857 eV
 
 Identity difference: 1.35E-04
 
   ============================================================                
   | Pseudopotential Report - Date of generation 31-03-2024   |                
   ------------------------------------------------------------                
   | Element: Si Ionic charge:  4.00 Level of theory: PBE     |                
   | Atomic Solver: Koelling-Harmon                           |                
   |                                                          |                
   |               Reference Electronic Structure             |                
   |         Orbital         Occupation         Energy        |                
   |            3s              2.000           -0.397        |                
   |            3p              2.000           -0.150        |                
   |                                                          |                
   |                 Pseudopotential Definition               |                
   |        Beta     l      e      Rc     scheme   norm       |                
   |          1      0   -0.397   1.797     qc      0         |                
   |          2      0    0.250   1.797     qc      0         |                
   |          3      1   -0.150   1.797     qc      0         |                
   |          4      1    0.250   1.797     qc      0         |                
   |          5      2    0.000   1.797     qc      0         |                
   |          6      2    0.250   1.797     qc      0         |                
   |         loc     3    0.000   1.797     pn      0         |                
   |                                                          |                
   | Augmentation charge Rinner = 1.255                       |                
   | Partial core correction Rc = 1.255                       |                
   ------------------------------------------------------------                
   | "3|1.8|3.6|5|7|30UU:31UU:32UU[]"                         |                
   ------------------------------------------------------------                
   |      Author: Chris J. Pickard, Cambridge University      |                
   ============================================================                
 
 Doing a self consistent calculation for the test configuration
 
 Atomic calculation performed for Si: 1s2 2s2 2p6 3s2 3p2
 
 Converged in 54 iterations to an ae energy of -7886.857 eV
 
 ---------------------------------------
 AE eigenvalue nl 10 =      -65.63192903
 AE eigenvalue nl 20 =       -5.12654326
 AE eigenvalue nl 21 =       -3.51173659
 AE eigenvalue nl 30 =       -0.39736430
 AE eigenvalue nl 31 =       -0.14998156
 ---------------------------------------
 PS eigenvalue nl 30 =       -0.39734922
 PS eigenvalue nl 31 =       -0.14996719
 ---------------------------------------
 Maximum eigenvalue error:   1.51E-05
 
 Derived cutoff energies: C=   1 M=   3 F=   6 E=   6
 
 Checking for ghost states up to   1.41161 Ha
 
 No Ghost States Identified
 
 ***************************************
 
 Pseudo atomic calculation performed for H 1s1
 
 Converged in 13 iterations to a total energy of -12.4790 eV
 
 Pseudo atomic calculation performed for C 2s2 2p2
 
 Converged in 17 iterations to a total energy of -148.5208 eV
 
 Pseudo atomic calculation performed for N 2s2 2p3
 
 Converged in 21 iterations to a total energy of -268.1820 eV
 
 Pseudo atomic calculation performed for O 2s2 2p4
 
 Converged in 23 iterations to a total energy of -432.6536 eV
 
 Pseudo atomic calculation performed for Si 3s2 3p2
 
 Converged in 11 iterations to a total energy of -165.0683 eV
 Calculation parallelised over 48 processes.
 Data is distributed by G-vector(48-way)

 ************************************ Title ************************************
 CASTEP calculation from BIOVIA Materials Studio 2024

 ***************************** General Parameters ******************************
  
 output verbosity                               : normal  (1)
 write checkpoint data to                       : Conf_0007.check
 type of calculation                            : geometry optimization
 stress calculation                             : off
 density difference calculation                 : off
 electron localisation func (ELF) calculation   : off
 Hirshfeld analysis                             : on
 polarisation (Berry phase) analysis            : off
 molecular orbital projected DOS                : off
 deltaSCF calculation                           : off
 unlimited duration calculation
 timing information                             : on
 memory usage estimate                          : on
 write extra output files                       : on
 write final potential to formatted file        : off
 write final density to formatted file          : off
 write BibTeX reference list                    : on
 write OTFG pseudopotential files               : on
 write electrostatic potential file             : on
 write bands file                               : on
 checkpoint writing                             : both castep_bin and check files
  
 output         length unit                     : A
 output           mass unit                     : amu
 output           time unit                     : ps
 output         charge unit                     : e
 output           spin unit                     : hbar/2
 output         energy unit                     : eV
 output          force unit                     : eV/A
 output       velocity unit                     : A/ps
 output       pressure unit                     : GPa
 output     inv_length unit                     : 1/A
 output      frequency unit                     : cm-1
 output force constant unit                     : eV/A**2
 output         volume unit                     : A**3
 output   IR intensity unit                     : (D/A)**2/amu
 output         dipole unit                     : D
 output         efield unit                     : eV/A/e
 output        entropy unit                     : J/mol/K
 output    efield chi2 unit                     : pm/V
  
 wavefunctions paging                           : none
 random number generator seed                   :    5024797
 data distribution                              : optimal for this architecture
 optimization strategy                          : balance speed and memory

 *********************** Exchange-Correlation Parameters ***********************
  
 using functional                               : Perdew Burke Ernzerhof
 relativistic treatment                         : Koelling-Harmon
 DFT+D: Semi-empirical dispersion correction    : on
 SEDC with                                      : G06 correction scheme

 ************************* Pseudopotential Parameters **************************
  
 pseudopotential representation                 : reciprocal space
 <beta|phi> representation                      : reciprocal space
 spin-orbit coupling                            : off

 **************************** Basis Set Parameters *****************************
  
 plane wave basis set cut-off                   :   600.0000   eV
 size of standard grid                          :     1.5000
 size of   fine   gmax                          :    18.8237   1/A
 largest prime factor in FFT                    :          5
 finite basis set correction                    : none

 **************************** Electronic Parameters ****************************
  
 number of  electrons                           :  74.00    
 net charge of system                           : +1.000    
 treating system as non-spin-polarized
 number of bands                                :         37

 ********************* Electronic Minimization Parameters **********************
  
 Method: Treating system as non-metallic,
         and number of  SD  steps               :          1
         and number of  CG  steps               :          4
  
 total energy / atom convergence tol.           : 0.2000E-05   eV
 eigen-energy convergence tolerance             : 0.1000E-05   eV
 max force / atom convergence tol.              : ignored
 convergence tolerance window                   :          3   cycles
 max. number of SCF cycles                      :        100
 periodic dipole correction                     : NONE

 ************************** Density Mixing Parameters **************************
  
 density-mixing scheme                          : Pulay
 max. length of mixing history                  :         20
 charge density mixing amplitude                : 0.5000    
 cut-off energy for mixing                      :  600.0       eV
 charge density mixing g-vector                 :  1.500       1/A

 *********************** Population Analysis Parameters ************************
  
 Population analysis with cutoff                :  3.000       A
 Population analysis output                     : summary and pdos components

 ********************** Geometry Optimization Parameters ***********************
  
 optimization method                            : LBFGS
 max. no. of LBFGS updates                      : unbounded
 preconditioned LBFGS is activated
 preconditioner type                            : EXP
     stabilization constant                     :     0.1000
     parameter A                                :     3.0000
     nearest neighbor distance                  : automatic
     cut-off distance                           : automatic
     parameter mu                               : automatic
 variable cell method                           : fixed basis quality
 max. number of steps                           :        300
 estimated bulk modulus                         :  500.0       GPa
 estimated <frequency>                          :  1668.       cm-1
 geom line minimiser                            : on
 with line minimiser tolerance                  :     0.4000
 total energy convergence tolerance             : 0.2000E-04   eV/atom
        max ionic |force| tolerance             : 0.5000E-01   eV/A
 max ionic |displacement| tolerance             : 0.2000E-02   A
   max |stress component| tolerance             : 0.1000       GPa
 convergence tolerance window                   :          2   steps
 backup results every                           :          5   steps
 write geom trajectory file                     : on

 *******************************************************************************
  
 
                           -------------------------------
                                      Unit Cell
                           -------------------------------
        Real Lattice(A)                      Reciprocal Lattice(1/A)
    13.4840002    -0.0000006    -0.0000006        0.465973392   0.000000000   0.000000000
     0.0000000    20.4006996    -0.0000009        0.000000013   0.307988717   0.000000000
     0.0000000     0.0000000    45.0000000        0.000000006   0.000000006   0.139626340
 
                       Lattice parameters(A)       Cell Angles
                    a =     13.484000          alpha =   90.000003
                    b =     20.400700          beta  =   90.000003
                    c =     45.000000          gamma =   90.000003
 
                       Current cell volume =         12378.736702       A**3
                                   density =             0.015698   AMU/A**3
                                           =             0.026068     g/cm^3
 
                           -------------------------------
                                     Cell Contents
                           -------------------------------
                         Total number of ions in cell =   32
                      Total number of species in cell =    5
                        Max number of any one species =   20
 
            xxxxxxxxxxxxxxxxxxxxxxxxxxxxxxxxxxxxxxxxxxxxxxxxxxxxxxxxxxxx
            x  Element    Atom        Fractional coordinates of atoms  x
            x            Number           u          v          w      x
            x----------------------------------------------------------x
            x  H            1         0.499518   0.408769   0.554151   x 
            x  H            2         0.588110   0.474398   0.552458   x 
            x  H            3         0.398934   0.473792   0.591379   x 
            x  H            4         0.487459   0.538270   0.589832   x 
            x  H            5         0.461528   0.417489   0.502349   x 
            x  H            6         0.411561   0.491378   0.487500   x 
            x  H            7         0.632305   0.478294   0.505050   x 
            x  H            8         0.576376   0.542975   0.484942   x 
            x  H            9         0.593647   0.399181   0.464370   x 
            x  H           10         0.669857   0.464093   0.452365   x 
            x  H           11         0.346655   0.442297   0.422512   x 
            x  H           12         0.588268   0.435446   0.386349   x 
            x  H           13         0.478433   0.559057   0.399647   x 
            x  H           14         0.373682   0.487323   0.536904   x 
            x  H           15         0.457642   0.545190   0.533396   x 
            x  H           16         0.530601   0.397370   0.610586   x 
            x  H           17         0.618383   0.461905   0.609319   x 
            x  H           18         0.552514   0.447298   0.660679   x 
            x  H           19         0.429328   0.460705   0.648009   x 
            x  H           20         0.517744   0.525588   0.646798   x 
            x  C            1         0.509915   0.462059   0.556874   x 
            x  C            2         0.478248   0.484680   0.587795   x 
            x  C            3         0.470432   0.471279   0.501893   x 
            x  C            4         0.572407   0.489749   0.489191   x 
            x  C            5         0.593823   0.452411   0.459855   x 
            x  C            6         0.538698   0.451142   0.612373   x 
            x  C            7         0.507791   0.472408   0.643601   x 
            x  N            1         0.446059   0.496242   0.532629   x 
            x  O            1         0.532265   0.425483   0.398287   x 
            x  O            2         0.508113   0.546304   0.417889   x 
            x  O            3         0.393292   0.451280   0.437822   x 
            x  Si           1         0.506289   0.469288   0.427459   x 
            xxxxxxxxxxxxxxxxxxxxxxxxxxxxxxxxxxxxxxxxxxxxxxxxxxxxxxxxxxxx
 
 
                         No user defined ionic velocities
 
                           -------------------------------
                                   Details of Species
                           -------------------------------
 
                               Mass of species in AMU
                                    H    1.0080000
                                    C   12.0109997
                                    N   14.0070000
                                    O   15.9989996
                                    Si   28.0849991
 
                          Electric Quadrupole Moment (Barn)
                                    H    0.0028600 Isotope  2
                                    C    0.0332700 Isotope 11
                                    N    0.0204400 Isotope 14
                                    O   -0.0255800 Isotope 17
                                    Si    1.0000000 No Isotope Defined
 
                          Files used for pseudopotentials:
                                    H 1|0.6|9|10|15|10UU(qc=8)[]
                                    C 2|1.4|11|12|14.7|20UU:21UU(qc=7)[]
                                    N 2|1.1|12|16|19|20UU:21UU(qc=7)[]
                                    O 2|1.1|14|18|21|20UU:21UU(qc=7)[]
                                    Si 3|1.8|3.6|5|7|30UU:31UU:32UU[]
 
                           -------------------------------
                              k-Points For BZ Sampling
                           -------------------------------
                       MP grid size for SCF calculation is  1  1  1
                            with an offset of   0.000  0.000  0.000
                       Number of kpoints used =             1
 
                           -------------------------------
                               Symmetry and Constraints
                           -------------------------------
 
                      Maximum deviation from symmetry =  0.00000         ANG
 
                      Number of symmetry operations   =           1
                      Number of nonlinear constraints =           3
         There are no ionic constraints specified or generated for this cell
                      Point group of crystal =     1: C1, 1, 1
                      Space group of crystal =     1: P1, P 1
 
             Set iprint > 1 for details on symmetry rotations/translations
 
                         Centre of mass is NOT constrained
 
                         Number of cell constraints= 6
                         Cell constraints are:  0 0 0 0 0 0
 
                         External pressure/stress (GPa)
                          0.00000   0.00000   0.00000
                                    0.00000   0.00000
                                              0.00000
 
                                --------------------
                                  DFT-D parameters
                                --------------------
 
                          Dispersion-correction scheme : G06       
                        Parameter s6 :   0.750000 (default)
                        Parameter d  :  20.000000 (default)
 
        xxxxxxxxxxxxxxxxxxxxxxxxxxxxxxxxxxxxxxxxxxxxxxxxxxxxxxxxxxxxxxxxxxxx
        x              Atomic DFT-D parameters                             x
        x  Species      C6            R0                                   x
        x               eV A^6        Ang                                  x
        x------------------------------------------------------------------x
        x  H             1.4510       1.0010   (default)                   x
        x  C            18.1375       1.4520   (default)                   x
        x  N            12.7481       1.3970   (default)                   x
        x  O             7.2550       1.3420   (default)                   x
        x  Si           95.6622       1.7160   (default)                   x
        xxxxxxxxxxxxxxxxxxxxxxxxxxxxxxxxxxxxxxxxxxxxxxxxxxxxxxxxxxxxxxxxxxxx
 
 
+---------------- MEMORY AND SCRATCH DISK ESTIMATES PER PROCESS --------------+
|                                                     Memory          Disk    |
| Baseline code, static data and system overhead     6530.0 MB         0.0 MB |
| BLAS internal memory storage                          0.0 MB         0.0 MB |
| Model and support data                              540.6 MB         0.0 MB |
| Electronic energy minimisation requirements          31.8 MB         0.0 MB |
| Force calculation requirements                        6.8 MB         0.0 MB |
|                                               ----------------------------- |
| Approx. total storage required per process         7102.3 MB         0.0 MB |
|                                                                             |
| Requirements will fluctuate during execution and may exceed these estimates |
+-----------------------------------------------------------------------------+
Calculating approximate eigenstates for fixed initial Hamiltonian
Cut-off for approx. calculation is  119.774 eV
Improving approx. states at cut-off of  300.000 eV
Resetting cut-off to  600.000 eV
Calculating total energy with cut-off of  600.000 eV.
------------------------------------------------------------------------ <-- SCF
SCF loop      Energy                           Energy gain       Timer   <-- SCF
                                               per atom          (sec)   <-- SCF
------------------------------------------------------------------------ <-- SCF
Initial  -2.94896697E+003                                         32.04  <-- SCF
      1  -3.20286645E+003                    7.93435861E+000      32.86  <-- SCF
      2  -3.20367164E+003                    2.51621808E-002      33.75  <-- SCF
      3  -3.19285175E+003                   -3.38121612E-001      34.78  <-- SCF
      4  -3.19166136E+003                   -3.71994985E-002      35.97  <-- SCF
      5  -3.19104385E+003                   -1.92971707E-002      36.98  <-- SCF
      6  -3.19095256E+003                   -2.85288558E-003      38.26  <-- SCF
      7  -3.19089537E+003                   -1.78729033E-003      39.27  <-- SCF
      8  -3.19088659E+003                   -2.74441064E-004      40.37  <-- SCF
      9  -3.19087651E+003                   -3.14781023E-004      41.39  <-- SCF
     10  -3.19086344E+003                   -4.08674702E-004      42.42  <-- SCF
     11  -3.19083846E+003                   -7.80621866E-004      43.48  <-- SCF
     12  -3.19077891E+003                   -1.86079205E-003      44.48  <-- SCF
     13  -3.19071750E+003                   -1.91920044E-003      45.46  <-- SCF
     14  -3.19065191E+003                   -2.04954743E-003      46.47  <-- SCF
     15  -3.19059772E+003                   -1.69333778E-003      47.45  <-- SCF
     16  -3.19056603E+003                   -9.90310883E-004      48.43  <-- SCF
     17  -3.19053440E+003                   -9.88699227E-004      49.41  <-- SCF
     18  -3.19050614E+003                   -8.83140322E-004      50.42  <-- SCF
     19  -3.19048673E+003                   -6.06500325E-004      51.37  <-- SCF
     20  -3.19045651E+003                   -9.44384807E-004      52.31  <-- SCF
     21  -3.19042520E+003                   -9.78446584E-004      53.29  <-- SCF
     22  -3.19041546E+003                   -3.04149530E-004      54.14  <-- SCF
     23  -3.19041151E+003                   -1.23467806E-004      55.11  <-- SCF
     24  -3.19041405E+003                    7.91263128E-005      56.09  <-- SCF
     25  -3.19041768E+003                    1.13694868E-004      56.91  <-- SCF
     26  -3.19042219E+003                    1.40884067E-004      57.74  <-- SCF
     27  -3.19042854E+003                    1.98466378E-004      58.57  <-- SCF
     28  -3.19043066E+003                    6.60298661E-005      59.35  <-- SCF
     29  -3.19043441E+003                    1.17334671E-004      60.17  <-- SCF
     30  -3.19043656E+003                    6.70992669E-005      60.98  <-- SCF
     31  -3.19043853E+003                    6.16939853E-005      61.77  <-- SCF
     32  -3.19044033E+003                    5.63062585E-005      62.56  <-- SCF
     33  -3.19044197E+003                    5.12758820E-005      63.35  <-- SCF
     34  -3.19044281E+003                    2.61327525E-005      64.13  <-- SCF
     35  -3.19044350E+003                    2.14693458E-005      64.92  <-- SCF
     36  -3.19044422E+003                    2.26352879E-005      65.74  <-- SCF
     37  -3.19044485E+003                    1.96041697E-005      66.54  <-- SCF
     38  -3.19044517E+003                    1.00789244E-005      67.32  <-- SCF
     39  -3.19044534E+003                    5.19242306E-006      68.11  <-- SCF
     40  -3.19044577E+003                    1.36471269E-005      68.90  <-- SCF
     41  -3.19044600E+003                    7.09172504E-006      69.68  <-- SCF
     42  -3.19044618E+003                    5.57423251E-006      70.47  <-- SCF
     43  -3.19044634E+003                    5.08036487E-006      71.26  <-- SCF
     44  -3.19044650E+003                    4.94467723E-006      72.05  <-- SCF
     45  -3.19044656E+003                    1.74775372E-006      72.84  <-- SCF
     46  -3.19044659E+003                    1.13935652E-006      73.63  <-- SCF
     47  -3.19044661E+003                    6.11445675E-007      74.41  <-- SCF
------------------------------------------------------------------------ <-- SCF
 
Final energy =  -3190.446613022     eV
(energy not corrected for finite basis set)
 
(SEDC) Total Energy Correction : -0.764399E+00 eV

Dispersion corrected final energy* =  -3191.211011722     eV

Writing analysis data to Conf_0007.castep_bin

Writing model to Conf_0007.check

WARNING - nonlinear constraints cannot be used with LBFGS algorithm
        - consider setting geom_method=DELOCALIZED
 
        => Turning nonlinear constraints OFF
 
+---------------- MEMORY AND SCRATCH DISK ESTIMATES PER PROCESS --------------+
|                                                     Memory          Disk    |
| Model and support data                              550.1 MB         0.0 MB |
| Electronic energy minimisation requirements          31.8 MB         0.0 MB |
| Geometry minimisation requirements                   34.8 MB         0.0 MB |
|                                               ----------------------------- |
| Approx. total storage required per process          616.7 MB         0.0 MB |
|                                                                             |
| Requirements will fluctuate during execution and may exceed these estimates |
+-----------------------------------------------------------------------------+
 
 
 ************************************** Forces **************************************
 *                                                                                  *
 *                           Cartesian components (eV/A)                            *
 * -------------------------------------------------------------------------------- *
 *                         x                    y                    z              *
 *                                                                                  *
 * H               1     -0.06590              0.21477             -0.14643         *
 * H               2     -0.25876              0.01982             -0.13749         *
 * H               3      0.01092              0.01926             -0.03411         *
 * H               4     -0.02456              0.00131             -0.06565         *
 * H               5     -0.02424              0.21281              0.14064         *
 * H               6      0.13189             -0.20160             -0.02209         *
 * H               7     -0.09172             -0.06926              0.05827         *
 * H               8     -0.11159             -0.06638              0.06207         *
 * H               9     -0.06459              0.02649             -0.13123         *
 * H              10     -0.13991              0.06111              0.04961         *
 * H              11     -0.68346             -0.22137             -0.72085         *
 * H              12      0.74655              0.19229             -0.59626         *
 * H              13     -0.40621              0.26553             -0.86809         *
 * H              14     -0.61898             -0.08056              0.18955         *
 * H              15      0.06811              0.73857              0.14263         *
 * H              16     -0.01371              0.07089             -0.06445         *
 * H              17     -0.07506             -0.04162             -0.09029         *
 * H              18     -0.08989              0.01904             -0.17521         *
 * H              19      0.03982              0.01070             -0.02104         *
 * H              20     -0.03286             -0.10209             -0.04753         *
 * C               1     -0.38851              0.44373              0.23850         *
 * C               2      0.02676             -0.00298              0.01162         *
 * C               3     -0.33506             -0.05078             -0.88756         *
 * C               4      0.13384              0.14238              0.20703         *
 * C               5     -0.45617              0.24192             -0.08066         *
 * C               6      0.19376             -0.19667              0.07408         *
 * C               7     -0.08627              0.08103              0.13986         *
 * N               1      1.92854             -1.17880              0.30432         *
 * O               1     -0.62082             -0.85113              0.29238         *
 * O               2      0.86864              0.53909              1.19039         *
 * O               3      0.16590             -0.29753              1.10258         *
 * Si              1      0.27353              0.06003             -0.11460         *
 *                                                                                  *
 ************************************************************************************
 EXP precond LBFGS => estimated nearest neighbor distance :  1.626       A
 EXP precond LBFGS => estimated cutoff distance :  3.252       A
 doing test perturbation to get energy scale for EXP preconditioner
 
                           -------------------------------
                                     Cell Contents
                           -------------------------------
 
            xxxxxxxxxxxxxxxxxxxxxxxxxxxxxxxxxxxxxxxxxxxxxxxxxxxxxxxxxxxxxxxxx
            x  Element         Atom        Fractional coordinates of atoms  x
            x                 Number           u          v          w      x
            x---------------------------------------------------------------x
            x  H                 1         0.500724   0.409228   0.554477   x
            x  H                 2         0.589279   0.474562   0.552784   x
            x  H                 3         0.400073   0.473959   0.591680   x
            x  H                 4         0.488662   0.538121   0.590134   x
            x  H                 5         0.462722   0.417912   0.502698   x
            x  H                 6         0.412714   0.491459   0.487854   x
            x  H                 7         0.633423   0.478440   0.505398   x
            x  H                 8         0.577555   0.542803   0.485296   x
            x  H                 9         0.594811   0.399678   0.464729   x
            x  H                10         0.670914   0.464306   0.452726   x
            x  H                11         0.347714   0.442611   0.422873   x
            x  H                12         0.589436   0.435792   0.386706   x
            x  H                13         0.479634   0.558809   0.400006   x
            x  H                14         0.374786   0.487425   0.537238   x
            x  H                15         0.458834   0.545008   0.533733   x
            x  H                16         0.531804   0.397874   0.610873   x
            x  H                17         0.619519   0.462129   0.609607   x
            x  H                18         0.553709   0.447590   0.660921   x
            x  H                19         0.430499   0.460935   0.648263   x
            x  H                20         0.518949   0.525501   0.647053   x
            x  C                 1         0.511121   0.462282   0.557198   x
            x  C                 2         0.479449   0.484794   0.588099   x
            x  C                 3         0.471630   0.471459   0.502242   x
            x  C                 4         0.573589   0.489838   0.489544   x
            x  C                 5         0.594986   0.452680   0.460215   x
            x  C                 6         0.539899   0.451416   0.612658   x
            x  C                 7         0.508997   0.472582   0.643859   x
            x  N                 1         0.447243   0.496299   0.532966   x
            x  O                 1         0.533468   0.425873   0.398646   x
            x  O                 2         0.509319   0.546117   0.418250   x
            x  O                 3         0.394423   0.451553   0.438183   x
            x  Si                1         0.507495   0.469477   0.427821   x
            xxxxxxxxxxxxxxxxxxxxxxxxxxxxxxxxxxxxxxxxxxxxxxxxxxxxxxxxxxxxxxxxx
 
 
------------------------------------------------------------------------ <-- SCF
SCF loop      Energy                           Energy gain       Timer   <-- SCF
                                               per atom          (sec)   <-- SCF
------------------------------------------------------------------------ <-- SCF
Initial  -3.19245416E+003                                         76.44  <-- SCF
      1  -3.19042731E+003                   -6.33391378E-002      77.25  <-- SCF
      2  -3.19044936E+003                    6.89106342E-004      78.41  <-- SCF
      3  -3.19042227E+003                   -8.46353427E-004      79.40  <-- SCF
      4  -3.19043889E+003                    5.19258171E-004      80.43  <-- SCF
      5  -3.19043926E+003                    1.15091274E-005      81.23  <-- SCF
      6  -3.19043950E+003                    7.67674587E-006      81.99  <-- SCF
      7  -3.19043959E+003                    2.54411599E-006      82.76  <-- SCF
      8  -3.19043963E+003                    1.28899141E-006      83.51  <-- SCF
      9  -3.19043968E+003                    1.48763223E-006      84.27  <-- SCF
     10  -3.19043970E+003                    8.13238217E-007      85.03  <-- SCF
     11  -3.19043974E+003                    1.10056215E-006      85.80  <-- SCF
------------------------------------------------------------------------ <-- SCF
 
Final energy =  -3190.439736345     eV
(energy not corrected for finite basis set)
 
(SEDC) Total Energy Correction : -0.764085E+00 eV

Dispersion corrected final energy* =  -3191.203821117     eV
 
 ************************************** Forces **************************************
 *                                                                                  *
 *                           Cartesian components (eV/A)                            *
 * -------------------------------------------------------------------------------- *
 *                         x                    y                    z              *
 *                                                                                  *
 * H               1     -0.07706              0.06799             -0.14835         *
 * H               2     -0.24384              0.03357             -0.14709         *
 * H               3      0.02303              0.01347             -0.02930         *
 * H               4     -0.01512              0.17046             -0.05673         *
 * H               5     -0.03694              0.05794              0.14488         *
 * H               6      0.12409             -0.18446             -0.02296         *
 * H               7     -0.07635             -0.08618              0.08777         *
 * H               8     -0.10611              0.09627              0.02975         *
 * H               9     -0.06686             -0.11157             -0.09727         *
 * H              10     -0.10556              0.08609              0.04284         *
 * H              11     -0.65678             -0.22012             -0.68285         *
 * H              12      0.75930              0.19444             -0.60004         *
 * H              13     -0.40861              0.28108             -0.88178         *
 * H              14     -0.58288             -0.07984              0.17135         *
 * H              15      0.09344              0.95847              0.13486         *
 * H              16      0.01019             -0.08198             -0.07501         *
 * H              17     -0.04094             -0.02757             -0.08443         *
 * H              18     -0.06931             -0.01705             -0.13816         *
 * H              19      0.04910             -0.00156             -0.02286         *
 * H              20      0.01611              0.06459             -0.01969         *
 * C               1     -0.38889              0.50030              0.23717         *
 * C               2     -0.02695             -0.08029              0.00230         *
 * C               3     -0.33227              0.02701             -0.89694         *
 * C               4      0.11106              0.07201              0.23072         *
 * C               5     -0.49017              0.29666             -0.10300         *
 * C               6      0.19742             -0.15148              0.08064         *
 * C               7     -0.14033             -0.00694              0.12621         *
 * N               1      1.84599             -1.31323              0.27238         *
 * O               1     -0.64547             -0.91104              0.24688         *
 * O               2      0.86817              0.76682              1.12261         *
 * O               3      0.17730             -0.31630              1.08614         *
 * Si              1      0.23526             -0.09755             -0.01004         *
 *                                                                                  *
 ************************************************************************************
 EXP precond LBFGS => estimated parameter mu :  2.936       eV/A**2
 LBFGS: finished iteration     0 with enthalpy= -3.19121101E+003 eV
  
 +-----------+-----------------+-----------------+------------+-----+ <-- LBFGS
 | Parameter |      value      |    tolerance    |    units   | OK? | <-- LBFGS
 +-----------+-----------------+-----------------+------------+-----+ <-- LBFGS
 |  dE/ion   |   0.000000E+000 |   2.000000E-005 |         eV | No  | <-- LBFGS
 |  |F|max   |   2.281765E+000 |   5.000000E-002 |       eV/A | No  | <-- LBFGS
 |  |dR|max  |   7.889328E-015 |   2.000000E-003 |          A | No  | <-- LBFGS
 +-----------+-----------------+-----------------+------------+-----+ <-- LBFGS
  

================================================================================
 Starting LBFGS iteration          1 ...
================================================================================
  
 +------------+-------------+-------------+-----------------+ <-- min LBFGS
 |    Step    |   lambda    |   F.delta'  |    enthalpy     | <-- min LBFGS
 +------------+-------------+-------------+-----------------+ <-- min LBFGS
 |  previous  |    0.000000 |    1.762245 |    -3191.211012 | <-- min LBFGS
 +------------+-------------+-------------+-----------------+ <-- min LBFGS
  

--------------------------------------------------------------------------------
 LBFGS: starting iteration         1 with trial guess (lambda=  1.000000)
--------------------------------------------------------------------------------
 
                           -------------------------------
                                     Cell Contents
                           -------------------------------
 
            xxxxxxxxxxxxxxxxxxxxxxxxxxxxxxxxxxxxxxxxxxxxxxxxxxxxxxxxxxxxxxxxx
            x  Element         Atom        Fractional coordinates of atoms  x
            x                 Number           u          v          w      x
            x---------------------------------------------------------------x
            x  H                 1         0.498999   0.410149   0.553940   x
            x  H                 2         0.586826   0.475273   0.552276   x
            x  H                 3         0.398875   0.474289   0.591145   x
            x  H                 4         0.487265   0.538733   0.589557   x
            x  H                 5         0.461482   0.417981   0.502323   x
            x  H                 6         0.412279   0.490544   0.487366   x
            x  H                 7         0.630987   0.478539   0.505233   x
            x  H                 8         0.575155   0.543159   0.485179   x
            x  H                 9         0.591164   0.399834   0.464273   x
            x  H                10         0.667098   0.464908   0.452527   x
            x  H                11         0.341179   0.438503   0.422776   x
            x  H                12         0.594325   0.432252   0.385258   x
            x  H                13         0.481617   0.562830   0.399668   x
            x  H                14         0.374021   0.486797   0.537279   x
            x  H                15         0.460279   0.546537   0.533733   x
            x  H                16         0.530129   0.397781   0.610153   x
            x  H                17         0.617634   0.461988   0.608852   x
            x  H                18         0.551160   0.447549   0.660003   x
            x  H                19         0.428580   0.460951   0.647550   x
            x  H                20         0.516678   0.525508   0.646303   x
            x  C                 1         0.509103   0.463361   0.556949   x
            x  C                 2         0.478121   0.485171   0.587592   x
            x  C                 3         0.470204   0.471106   0.501310   x
            x  C                 4         0.571637   0.490244   0.489411   x
            x  C                 5         0.590850   0.453318   0.459910   x
            x  C                 6         0.538566   0.451133   0.612040   x
            x  C                 7         0.506712   0.472681   0.643209   x
            x  N                 1         0.451106   0.494903   0.532957   x
            x  O                 1         0.533631   0.420636   0.398191   x
            x  O                 2         0.514693   0.550047   0.419740   x
            x  O                 3         0.391169   0.447852   0.439633   x
            x  Si                1         0.508356   0.468587   0.427931   x
            xxxxxxxxxxxxxxxxxxxxxxxxxxxxxxxxxxxxxxxxxxxxxxxxxxxxxxxxxxxxxxxxx
 
 
------------------------------------------------------------------------ <-- SCF
SCF loop      Energy                           Energy gain       Timer   <-- SCF
                                               per atom          (sec)   <-- SCF
------------------------------------------------------------------------ <-- SCF
Initial  -3.19680726E+003                                         87.17  <-- SCF
      1  -3.18999137E+003                   -2.12996719E-001      88.05  <-- SCF
      2  -3.19042149E+003                    1.34412953E-002      89.25  <-- SCF
      3  -3.19013092E+003                   -9.08018761E-003      90.26  <-- SCF
      4  -3.19016829E+003                    1.16773853E-003      91.47  <-- SCF
      5  -3.19019598E+003                    8.65342334E-004      92.47  <-- SCF
      6  -3.19019759E+003                    5.00845627E-005      93.48  <-- SCF
      7  -3.19019834E+003                    2.35708249E-005      94.24  <-- SCF
      8  -3.19019875E+003                    1.28659323E-005      95.00  <-- SCF
      9  -3.19019927E+003                    1.61005134E-005      95.84  <-- SCF
     10  -3.19019939E+003                    3.97046505E-006      96.60  <-- SCF
     11  -3.19019960E+003                    6.33758912E-006      97.36  <-- SCF
     12  -3.19019962E+003                    8.57674542E-007      98.13  <-- SCF
     13  -3.19019975E+003                    3.89537510E-006      98.89  <-- SCF
     14  -3.19019973E+003                   -4.93863233E-007      99.66  <-- SCF
     15  -3.19019976E+003                    8.05469231E-007     100.42  <-- SCF
------------------------------------------------------------------------ <-- SCF
 
Final energy =  -3190.199759087     eV
(energy not corrected for finite basis set)
 
(SEDC) Total Energy Correction : -0.767791E+00 eV

Dispersion corrected final energy* =  -3190.967550578     eV
 
 ************************************** Forces **************************************
 *                                                                                  *
 *                           Cartesian components (eV/A)                            *
 * -------------------------------------------------------------------------------- *
 *                         x                    y                    z              *
 *                                                                                  *
 * H               1      0.05126              0.09860              0.03834         *
 * H               2      0.08655             -0.05352              0.09893         *
 * H               3     -0.04107              0.03804             -0.01981         *
 * H               4     -0.02413              0.04318              0.03277         *
 * H               5     -0.00840             -0.21774              0.01050         *
 * H               6     -0.53530              0.26116             -0.27678         *
 * H               7      0.02934             -0.13221              0.08990         *
 * H               8     -0.08817              0.14835              0.04001         *
 * H               9     -0.05999              0.15394             -0.09786         *
 * H              10     -0.11502              0.03327             -0.00260         *
 * H              11      1.65018              0.42238              1.73747         *
 * H              12     -1.95685             -0.46699              1.41867         *
 * H              13      1.15528             -0.65988              2.32145         *
 * H              14      1.37205              0.27876             -0.18945         *
 * H              15     -0.07105             -1.10243             -0.00741         *
 * H              16     -0.04108             -0.14047             -0.07507         *
 * H              17      0.12125             -0.00091             -0.06022         *
 * H              18      0.07630             -0.08538              0.14168         *
 * H              19     -0.08868             -0.02004             -0.03260         *
 * H              20     -0.00409              0.13095             -0.01304         *
 * C               1      0.57201             -0.54350              0.00184         *
 * C               2     -0.10839              0.13841              0.24234         *
 * C               3      0.60636             -0.04942              0.59322         *
 * C               4     -0.05453             -0.07286             -0.29521         *
 * C               5      0.62031             -0.17869              0.51901         *
 * C               6     -0.11450              0.14319              0.10774         *
 * C               7     -0.01679             -0.04299             -0.16826         *
 * N               1     -1.82478              1.14155             -0.29270         *
 * O               1      1.61507              1.19858             -0.30815         *
 * O               2     -1.03926             -0.65369             -1.90373         *
 * O               3     -0.32067             -0.22540             -2.14205         *
 * Si              1     -1.44319              0.41574             -1.50892         *
 *                                                                                  *
 ************************************************************************************
  
 +------------+-------------+-------------+-----------------+ <-- min LBFGS
 |    Step    |   lambda    |   F.delta'  |    enthalpy     | <-- min LBFGS
 +------------+-------------+-------------+-----------------+ <-- min LBFGS
 |  previous  |    0.000000 |    1.762245 |    -3191.211012 | <-- min LBFGS
 | trial step |    1.000000 |   -2.525643 |    -3190.967551 | <-- min LBFGS
 +------------+-------------+-------------+-----------------+ <-- min LBFGS
  

--------------------------------------------------------------------------------
 LBFGS: improving iteration         1 with line minimization (lambda=  0.410982)
--------------------------------------------------------------------------------
 
                           -------------------------------
                                     Cell Contents
                           -------------------------------
 
            xxxxxxxxxxxxxxxxxxxxxxxxxxxxxxxxxxxxxxxxxxxxxxxxxxxxxxxxxxxxxxxxx
            x  Element         Atom        Fractional coordinates of atoms  x
            x                 Number           u          v          w      x
            x---------------------------------------------------------------x
            x  H                 1         0.499305   0.409336   0.554064   x
            x  H                 2         0.587582   0.474758   0.552383   x
            x  H                 3         0.398910   0.473996   0.591283   x
            x  H                 4         0.487379   0.538460   0.589719   x
            x  H                 5         0.461509   0.417691   0.502338   x
            x  H                 6         0.411856   0.491035   0.487445   x
            x  H                 7         0.631764   0.478395   0.505125   x
            x  H                 8         0.575874   0.543050   0.485039   x
            x  H                 9         0.592627   0.399449   0.464330   x
            x  H                10         0.668723   0.464428   0.452432   x
            x  H                11         0.344404   0.440738   0.422620   x
            x  H                12         0.590757   0.434133   0.385901   x
            x  H                13         0.479742   0.560608   0.399656   x
            x  H                14         0.373822   0.487107   0.537058   x
            x  H                15         0.458726   0.545743   0.533535   x
            x  H                16         0.530407   0.397539   0.610408   x
            x  H                17         0.618075   0.461939   0.609127   x
            x  H                18         0.551958   0.447401   0.660401   x
            x  H                19         0.429020   0.460806   0.647821   x
            x  H                20         0.517306   0.525555   0.646595   x
            x  C                 1         0.509581   0.462594   0.556905   x
            x  C                 2         0.478196   0.484882   0.587711   x
            x  C                 3         0.470339   0.471208   0.501653   x
            x  C                 4         0.572091   0.489952   0.489282   x
            x  C                 5         0.592601   0.452784   0.459878   x
            x  C                 6         0.538644   0.451138   0.612236   x
            x  C                 7         0.507348   0.472520   0.643440   x
            x  N                 1         0.448133   0.495691   0.532764   x
            x  O                 1         0.532827   0.423491   0.398247   x
            x  O                 2         0.510817   0.547842   0.418650   x
            x  O                 3         0.392420   0.449871   0.438566   x
            x  Si                1         0.507138   0.469000   0.427653   x
            xxxxxxxxxxxxxxxxxxxxxxxxxxxxxxxxxxxxxxxxxxxxxxxxxxxxxxxxxxxxxxxxx
 
 
------------------------------------------------------------------------ <-- SCF
SCF loop      Energy                           Energy gain       Timer   <-- SCF
                                               per atom          (sec)   <-- SCF
------------------------------------------------------------------------ <-- SCF
Initial  -3.19725502E+003                                        101.77  <-- SCF
      1  -3.19054117E+003                   -2.09807920E-001     102.57  <-- SCF
      2  -3.19066626E+003                    3.90906096E-003     103.69  <-- SCF
      3  -3.19054778E+003                   -3.70244966E-003     104.70  <-- SCF
      4  -3.19058144E+003                    1.05202663E-003     105.81  <-- SCF
      5  -3.19059479E+003                    4.17053928E-004     106.81  <-- SCF
      6  -3.19059518E+003                    1.22251104E-005     107.58  <-- SCF
      7  -3.19059545E+003                    8.39592066E-006     108.34  <-- SCF
      8  -3.19059572E+003                    8.41782748E-006     109.11  <-- SCF
      9  -3.19059587E+003                    4.66753425E-006     109.87  <-- SCF
     10  -3.19059611E+003                    7.69565023E-006     110.67  <-- SCF
     11  -3.19059620E+003                    2.81259410E-006     111.45  <-- SCF
     12  -3.19059638E+003                    5.57423661E-006     112.21  <-- SCF
     13  -3.19059645E+003                    1.99490114E-006     112.98  <-- SCF
     14  -3.19059657E+003                    4.01008767E-006     113.74  <-- SCF
     15  -3.19059659E+003                    4.59173365E-007     114.51  <-- SCF
     16  -3.19059666E+003                    2.25696017E-006     115.28  <-- SCF
     17  -3.19059668E+003                    4.54330323E-007     116.06  <-- SCF
     18  -3.19059670E+003                    8.57460457E-007     116.85  <-- SCF
------------------------------------------------------------------------ <-- SCF
 
Final energy =  -3190.596703457     eV
(energy not corrected for finite basis set)
 
(SEDC) Total Energy Correction : -0.765884E+00 eV

Dispersion corrected final energy* =  -3191.362587719     eV
 
 ************************************** Forces **************************************
 *                                                                                  *
 *                           Cartesian components (eV/A)                            *
 * -------------------------------------------------------------------------------- *
 *                         x                    y                    z              *
 *                                                                                  *
 * H               1     -0.01618              0.17283             -0.07286         *
 * H               2     -0.12082             -0.00874             -0.04466         *
 * H               3     -0.00798              0.02608             -0.02606         *
 * H               4     -0.02167              0.01774             -0.02406         *
 * H               5     -0.01504              0.03723              0.08662         *
 * H               6     -0.12556             -0.01899             -0.11596         *
 * H               7     -0.03957             -0.09604              0.07056         *
 * H               8     -0.09990              0.02059              0.05358         *
 * H               9     -0.05753              0.07610             -0.11794         *
 * H              10     -0.12251              0.05234              0.02903         *
 * H              11      0.42297              0.11118              0.45395         *
 * H              12     -0.58051             -0.11434              0.38262         *
 * H              13      0.34319             -0.18937              0.68799         *
 * H              14      0.29841              0.09338              0.01292         *
 * H              15     -0.00481             -0.08973              0.07671         *
 * H              16     -0.02323             -0.01573             -0.06721         *
 * H              17      0.00819             -0.02627             -0.07745         *
 * H              18     -0.02075             -0.02359             -0.04573         *
 * H              19     -0.01074             -0.00286             -0.02203         *
 * H              20     -0.01984             -0.00820             -0.03190         *
 * C               1     -0.03303              0.07461              0.09026         *
 * C               2     -0.02495              0.05255              0.10160         *
 * C               3      0.04071             -0.03935             -0.28492         *
 * C               4      0.05550              0.05023              0.00260         *
 * C               5     -0.02883              0.07585              0.13824         *
 * C               6      0.06905             -0.05803              0.08832         *
 * C               7     -0.05365              0.02843              0.01492         *
 * N               1      0.34459             -0.26665              0.14276         *
 * O               1      0.46543              0.05411             -0.03766         *
 * O               2     -0.02485              0.07884             -0.30960         *
 * O               3     -0.09274             -0.27278             -0.42678         *
 * Si              1     -0.50335              0.20858             -0.72787         *
 *                                                                                  *
 ************************************************************************************
  
 +------------+-------------+-------------+-----------------+ <-- min LBFGS
 |    Step    |   lambda    |   F.delta'  |    enthalpy     | <-- min LBFGS
 +------------+-------------+-------------+-----------------+ <-- min LBFGS
 |  previous  |    0.000000 |    1.762245 |    -3191.211012 | <-- min LBFGS
 | trial step |    1.000000 |   -2.525643 |    -3190.967551 | <-- min LBFGS
 |  line step |    0.410982 |   -0.178042 |    -3191.362588 | <-- min LBFGS
 +------------+-------------+-------------+-----------------+ <-- min LBFGS
  
 LBFGS: finished iteration     1 with enthalpy= -3.19136259E+003 eV
  
 +-----------+-----------------+-----------------+------------+-----+ <-- LBFGS
 | Parameter |      value      |    tolerance    |    units   | OK? | <-- LBFGS
 +-----------+-----------------+-----------------+------------+-----+ <-- LBFGS
 |  dE/ion   |   4.736750E-003 |   2.000000E-005 |         eV | No  | <-- LBFGS
 |  |F|max   |   9.092075E-001 |   5.000000E-002 |       eV/A | No  | <-- LBFGS
 |  |dR|max  |   5.905201E-002 |   2.000000E-003 |          A | No  | <-- LBFGS
 +-----------+-----------------+-----------------+------------+-----+ <-- LBFGS
  

================================================================================
 Starting LBFGS iteration          2 ...
================================================================================
  
 +------------+-------------+-------------+-----------------+ <-- min LBFGS
 |    Step    |   lambda    |   F.delta'  |    enthalpy     | <-- min LBFGS
 +------------+-------------+-------------+-----------------+ <-- min LBFGS
 |  previous  |    0.000000 |    0.716296 |    -3191.362588 | <-- min LBFGS
 +------------+-------------+-------------+-----------------+ <-- min LBFGS
  

--------------------------------------------------------------------------------
 LBFGS: starting iteration         2 with trial guess (lambda=  1.000000)
--------------------------------------------------------------------------------
 
                           -------------------------------
                                     Cell Contents
                           -------------------------------
 
            xxxxxxxxxxxxxxxxxxxxxxxxxxxxxxxxxxxxxxxxxxxxxxxxxxxxxxxxxxxxxxxxx
            x  Element         Atom        Fractional coordinates of atoms  x
            x                 Number           u          v          w      x
            x---------------------------------------------------------------x
            x  H                 1         0.499520   0.410415   0.553813   x
            x  H                 2         0.587129   0.475233   0.552181   x
            x  H                 3         0.399139   0.474425   0.591049   x
            x  H                 4         0.487487   0.538843   0.589477   x
            x  H                 5         0.461691   0.417969   0.502205   x
            x  H                 6         0.411965   0.490700   0.487065   x
            x  H                 7         0.630701   0.478462   0.505180   x
            x  H                 8         0.574582   0.543348   0.485101   x
            x  H                 9         0.590418   0.400313   0.464085   x
            x  H                10         0.666029   0.465300   0.452480   x
            x  H                11         0.346144   0.439129   0.423258   x
            x  H                12         0.588176   0.432467   0.386874   x
            x  H                13         0.483507   0.560609   0.401385   x
            x  H                14         0.376119   0.487035   0.537119   x
            x  H                15         0.460674   0.545842   0.533653   x
            x  H                16         0.530245   0.397674   0.609970   x
            x  H                17         0.617939   0.461941   0.608667   x
            x  H                18         0.551201   0.447440   0.659843   x
            x  H                19         0.428504   0.460913   0.647365   x
            x  H                20         0.516660   0.525550   0.646117   x
            x  C                 1         0.509723   0.463322   0.556858   x
            x  C                 2         0.478352   0.485307   0.587555   x
            x  C                 3         0.470590   0.471125   0.501145   x
            x  C                 4         0.571342   0.490354   0.489272   x
            x  C                 5         0.590345   0.453630   0.459883   x
            x  C                 6         0.538755   0.451121   0.611932   x
            x  C                 7         0.506687   0.472656   0.643025   x
            x  N                 1         0.451360   0.494944   0.532861   x
            x  O                 1         0.532197   0.421727   0.398958   x
            x  O                 2         0.514042   0.548496   0.419850   x
            x  O                 3         0.393108   0.447780   0.438832   x
            x  Si                1         0.505547   0.469076   0.427206   x
            xxxxxxxxxxxxxxxxxxxxxxxxxxxxxxxxxxxxxxxxxxxxxxxxxxxxxxxxxxxxxxxxx
 
 
------------------------------------------------------------------------ <-- SCF
SCF loop      Energy                           Energy gain       Timer   <-- SCF
                                               per atom          (sec)   <-- SCF
------------------------------------------------------------------------ <-- SCF
Initial  -3.19969209E+003                                        118.24  <-- SCF
      1  -3.19052812E+003                   -2.86373857E-001     119.05  <-- SCF
      2  -3.19064493E+003                    3.65026573E-003     120.22  <-- SCF
      3  -3.19057163E+003                   -2.29065887E-003     121.23  <-- SCF
      4  -3.19061873E+003                    1.47178246E-003     122.26  <-- SCF
      5  -3.19062082E+003                    6.54282087E-005     123.35  <-- SCF
      6  -3.19062101E+003                    5.85287770E-006     124.18  <-- SCF
      7  -3.19062085E+003                   -4.85619142E-006     124.97  <-- SCF
      8  -3.19062056E+003                   -9.01945608E-006     125.82  <-- SCF
      9  -3.19062050E+003                   -2.14690696E-006     126.58  <-- SCF
     10  -3.19062056E+003                    1.94522830E-006     127.34  <-- SCF
     11  -3.19062065E+003                    2.78656722E-006     128.11  <-- SCF
     12  -3.19062081E+003                    4.99437732E-006     128.87  <-- SCF
     13  -3.19062093E+003                    3.93365449E-006     129.64  <-- SCF
     14  -3.19062102E+003                    2.87645630E-006     130.40  <-- SCF
     15  -3.19062111E+003                    2.50790592E-006     131.17  <-- SCF
     16  -3.19062121E+003                    3.42525183E-006     131.94  <-- SCF
     17  -3.19062129E+003                    2.30831296E-006     132.71  <-- SCF
     18  -3.19062135E+003                    1.93886482E-006     133.48  <-- SCF
     19  -3.19062140E+003                    1.65043256E-006     134.25  <-- SCF
     20  -3.19062144E+003                    1.27150951E-006     135.03  <-- SCF
     21  -3.19062150E+003                    1.62968355E-006     135.80  <-- SCF
     22  -3.19062152E+003                    7.73523269E-007     136.59  <-- SCF
     23  -3.19062156E+003                    1.28622276E-006     137.37  <-- SCF
     24  -3.19062159E+003                    7.92536922E-007     138.15  <-- SCF
     25  -3.19062161E+003                    6.92937343E-007     138.93  <-- SCF
------------------------------------------------------------------------ <-- SCF
 
Final energy =  -3190.621609728     eV
(energy not corrected for finite basis set)
 
(SEDC) Total Energy Correction : -0.771716E+00 eV

Dispersion corrected final energy* =  -3191.393326103     eV
 
 ************************************** Forces **************************************
 *                                                                                  *
 *                           Cartesian components (eV/A)                            *
 * -------------------------------------------------------------------------------- *
 *                         x                    y                    z              *
 *                                                                                  *
 * H               1      0.03006             -0.07724              0.03221         *
 * H               2      0.19673             -0.01923              0.08222         *
 * H               3     -0.05996              0.02845             -0.02234         *
 * H               4     -0.01205              0.05334              0.04128         *
 * H               5      0.00491             -0.19144             -0.00131         *
[...]
 * H              16      0.00230              0.00302              0.00290         *
 * H              17     -0.00763             -0.00180             -0.00052         *
 * H              18      0.00071             -0.00085             -0.00253         *
 * H              19     -0.00382             -0.00141              0.00288         *
 * H              20     -0.00082              0.00380              0.00105         *
 * C               1      0.00506              0.00167              0.00565         *
 * C               2      0.01361             -0.00691             -0.00778         *
 * C               3      0.00700              0.00618              0.00219         *
 * C               4     -0.00305              0.00157              0.00048         *
 * C               5     -0.00538              0.00118             -0.00097         *
 * C               6      0.00657             -0.00083             -0.00359         *
 * C               7      0.00415             -0.00219              0.00095         *
 * N               1     -0.01198             -0.00566             -0.00404         *
 * O               1     -0.01100              0.00333              0.02222         *
 * O               2     -0.00177             -0.00308             -0.00482         *
 * O               3      0.00961              0.00269              0.00248         *
 * Si              1     -0.00197             -0.00568             -0.00940         *
 *                                                                                  *
 ************************************************************************************
 
 Pseudo atomic calculation performed for H 1s1
 
 Converged in 13 iterations to a total energy of -12.4790 eV
 
 Pseudo atomic calculation performed for C 2s2 2p2
 
 Converged in 17 iterations to a total energy of -148.5208 eV
 
 Pseudo atomic calculation performed for N 2s2 2p3
 
 Converged in 21 iterations to a total energy of -268.1820 eV
 
 Pseudo atomic calculation performed for O 2s2 2p4
 
 Converged in 23 iterations to a total energy of -432.6536 eV
 
 Pseudo atomic calculation performed for Si 3s2 3p2
 
 Converged in 11 iterations to a total energy of -165.0683 eV
Charge spilling parameter for spin component 1 = 1.55%
 
            Orbital Populations       
     Ion    Atom   Orbital             Charge
  -------------------------------------------
      H     1      S                    0.690
      H     2      S                    0.696
      H     3      S                    0.738
      H     4      S                    0.729
      H     5      S                    0.693
      H     6      S                    0.681
      H     7      S                    0.740
      H     8      S                    0.720
      H     9      S                    0.723
      H    10      S                    0.703
      H    11      S                    0.460
      H    12      S                    0.455
      H    13      S                    0.462
      H    14      S                    0.504
      H    15      S                    0.509
      H    16      S                    0.729
      H    17      S                    0.727
      H    18      S                    0.698
      H    19      S                    0.730
      H    20      S                    0.726
      C     1      S                    1.296
      C     1      Px                   1.092
      C     1      Py                   1.135
      C     1      Pz                   0.872
      C     2      S                    1.297
      C     2      Px                   1.146
      C     2      Py                   1.146
      C     2      Pz                   0.931
      C     3      S                    1.302
      C     3      Px                   1.132
      C     3      Py                   1.172
      C     3      Pz                   0.798
      C     4      S                    1.294
      C     4      Px                   1.006
      C     4      Py                   1.162
      C     4      Pz                   1.055
      C     5      S                    1.408
      C     5      Px                   1.273
      C     5      Py                   1.189
      C     5      Pz                   1.093
      C     6      S                    1.304
      C     6      Px                   1.121
      C     6      Py                   1.135
      C     6      Pz                   0.949
      C     7      S                    1.400
      C     7      Px                   1.184
      C     7      Py                   1.188
      C     7      Pz                   1.022
      N     1      S                    1.589
      N     1      Px                   1.393
      N     1      Py                   1.393
      N     1      Pz                   1.265
      O     1      S                    1.854
      O     1      Px                   1.738
      O     1      Py                   1.859
      O     1      Pz                   1.643
      O     2      S                    1.856
      O     2      Px                   1.850
      O     2      Py                   1.638
      O     2      Pz                   1.756
      O     3      S                    1.856
      O     3      Px                   1.629
      O     3      Py                   1.846
      O     3      Pz                   1.784
     Si     1      S                    0.726
     Si     1      Px                   0.375
     Si     1      Py                   0.332
     Si     1      Pz                   0.403
  -------------------------------------------
                           Total:      74.000
  -------------------------------------------
 
     Atomic Populations (Mulliken)
     -----------------------------
Species          Ion     s       p       d       f      Total   Charge (e)
==========================================================================
  H               1     0.690   0.000   0.000   0.000   0.690     0.310
  H               2     0.696   0.000   0.000   0.000   0.696     0.304
  H               3     0.738   0.000   0.000   0.000   0.738     0.262
  H               4     0.729   0.000   0.000   0.000   0.729     0.271
  H               5     0.693   0.000   0.000   0.000   0.693     0.307
  H               6     0.681   0.000   0.000   0.000   0.681     0.319
  H               7     0.740   0.000   0.000   0.000   0.740     0.260
  H               8     0.720   0.000   0.000   0.000   0.720     0.280
  H               9     0.723   0.000   0.000   0.000   0.723     0.277
  H              10     0.703   0.000   0.000   0.000   0.703     0.297
  H              11     0.460   0.000   0.000   0.000   0.460     0.540
  H              12     0.455   0.000   0.000   0.000   0.455     0.545
  H              13     0.462   0.000   0.000   0.000   0.462     0.538
  H              14     0.504   0.000   0.000   0.000   0.504     0.496
  H              15     0.509   0.000   0.000   0.000   0.509     0.491
  H              16     0.729   0.000   0.000   0.000   0.729     0.271
  H              17     0.727   0.000   0.000   0.000   0.727     0.273
  H              18     0.698   0.000   0.000   0.000   0.698     0.302
  H              19     0.730   0.000   0.000   0.000   0.730     0.270
  H              20     0.726   0.000   0.000   0.000   0.726     0.274
  C               1     1.296   3.100   0.000   0.000   4.395    -0.395
  C               2     1.297   3.223   0.000   0.000   4.520    -0.520
  C               3     1.302   3.103   0.000   0.000   4.405    -0.405
  C               4     1.294   3.223   0.000   0.000   4.517    -0.517
  C               5     1.408   3.555   0.000   0.000   4.964    -0.964
  C               6     1.304   3.205   0.000   0.000   4.510    -0.510
  C               7     1.400   3.394   0.000   0.000   4.794    -0.794
  N               1     1.589   4.051   0.000   0.000   5.640    -0.640
  O               1     1.854   5.240   0.000   0.000   7.094    -1.094
  O               2     1.856   5.244   0.000   0.000   7.099    -1.099
  O               3     1.856   5.259   0.000   0.000   7.115    -1.115
  Si              1     0.726   1.109   0.000   0.000   1.834     2.166
==========================================================================
 
                 Bond                   Population      Length (A)
======================================================================
              H 12 -- O 1                    0.53        0.96766
              H 13 -- O 2                    0.53        0.96904
              H 11 -- O 3                    0.53        0.97009
              H 15 -- N 1                    0.67        1.02890
              H 14 -- N 1                    0.68        1.02893
              H 2  -- C 1                    0.86        1.09597
              H 18 -- C 7                    0.81        1.09721
              H 5  -- C 3                    0.85        1.09783
              H 6  -- C 3                    0.85        1.09815
              H 1  -- C 1                    0.86        1.09906
              H 20 -- C 7                    0.81        1.09942
              H 19 -- C 7                    0.81        1.10039
              H 7  -- C 4                    0.86        1.10081
              H 10 -- C 5                    0.82        1.10081
              H 17 -- C 6                    0.84        1.10219
              H 16 -- C 6                    0.84        1.10224
              H 9  -- C 5                    0.82        1.10258
              H 8  -- C 4                    0.85        1.10267
              H 4  -- C 2                    0.84        1.10402
              H 3  -- C 2                    0.85        1.10476
               C 1 -- N 1                    0.51        1.51010
               C 1 -- C 2                    0.71        1.51734
               C 3 -- N 1                    0.50        1.51926
               C 3 -- C 4                    0.70        1.52149
               C 6 -- C 7                    0.65        1.52636
               C 2 -- C 6                    0.68        1.53225
               C 4 -- C 5                    0.64        1.54118
               O 1 -- Si 1                   0.52        1.64133
              H 14 -- H 15                  -0.11        1.64392
               O 2 -- Si 1                   0.50        1.64903
               O 3 -- Si 1                   0.47        1.65691
              H 9  -- H 10                  -0.09        1.76660
              H 16 -- H 17                  -0.12        1.76711
              H 18 -- H 19                  -0.10        1.77631
              H 18 -- H 20                  -0.10        1.77749
              H 3  -- H 4                   -0.12        1.77756
              H 7  -- H 8                   -0.13        1.77919
              H 5  -- H 6                   -0.11        1.78034
              H 19 -- H 20                  -0.10        1.78135
              H 1  -- H 2                   -0.11        1.78329
               C 5 -- Si 1                   0.59        1.87799
              H 14 -- C 1                   -0.13        2.07042
              H 15 -- C 1                   -0.12        2.08479
              H 14 -- C 3                   -0.13        2.08961
              H 15 -- C 3                   -0.12        2.09635
              H 1  -- N 1                   -0.11        2.10149
              H 5  -- N 1                   -0.11        2.10310
              H 2  -- N 1                   -0.11        2.10818
              H 6  -- N 1                   -0.11        2.11923
              H 10 -- C 4                   -0.12        2.15346
              H 8  -- C 3                   -0.13        2.15515
              H 7  -- C 3                   -0.14        2.15735
              H 3  -- C 1                   -0.14        2.15884
              H 17 -- C 2                   -0.14        2.15944
              H 16 -- C 2                   -0.13        2.16008
              H 3  -- C 6                   -0.12        2.16213
              H 4  -- C 1                   -0.13        2.16482
              H 4  -- C 6                   -0.12        2.16720
              H 16 -- C 7                   -0.13        2.16843
              H 7  -- C 5                   -0.13        2.16903
              H 19 -- C 6                   -0.12        2.17210
              H 8  -- C 5                   -0.13        2.17370
              H 17 -- C 7                   -0.13        2.17394
              H 20 -- C 6                   -0.12        2.17542
              H 1  -- C 2                   -0.12        2.17678
              H 2  -- C 2                   -0.12        2.17939
              H 18 -- C 6                   -0.11        2.17978
              H 9  -- C 4                   -0.12        2.18084
              H 5  -- C 4                   -0.12        2.18103
              H 6  -- C 4                   -0.11        2.18145
              H 2  -- H 7                   -0.04        2.18924
              H 11 -- Si 1                  -0.13        2.25802
              H 13 -- Si 1                  -0.14        2.28894
              H 6  -- H 14                  -0.04        2.29085
              H 12 -- Si 1                  -0.12        2.29189
              H 1  -- H 5                   -0.02        2.37326
              H 6  -- O 3                   -0.00        2.37541
              H 2  -- H 15                  -0.04        2.39274
              H 3  -- H 14                  -0.01        2.41244
              H 7  -- H 10                  -0.05        2.42172
              H 1  -- H 14                  -0.03        2.42188
              H 10 -- Si 1                  -0.12        2.43521
              H 5  -- H 14                  -0.02        2.46522
              H 6  -- H 8                   -0.04        2.47560
              H 9  -- Si 1                  -0.13        2.47617
              H 4  -- H 17                  -0.04        2.48797
              H 6  -- H 15                  -0.02        2.48889
              H 1  -- H 16                  -0.01        2.49568
               C 2 -- N 1                   -0.14        2.49704
              H 3  -- H 19                  -0.01        2.49772
              H 16 -- H 18                  -0.03        2.50450
               C 1 -- C 6                   -0.15        2.51027
               C 4 -- N 1                   -0.13        2.51905
              H 5  -- H 9                   -0.01        2.52003
              H 2  -- H 4                   -0.04        2.52062
              H 8  -- H 10                  -0.02        2.52066
              H 17 -- H 20                  -0.03        2.52237
              H 1  -- H 3                   -0.03        2.52620
               C 2 -- C 7                   -0.16        2.52649
               C 3 -- C 5                   -0.15        2.52851
              H 3  -- H 16                  -0.03        2.53098
              H 8  -- H 15                  -0.00        2.53129
              H 16 -- H 19                  -0.03        2.53189
              H 17 -- H 18                  -0.03        2.53357
              H 7  -- H 9                   -0.03        2.53520
              H 4  -- H 15                  -0.00        2.54531
              H 5  -- H 7                   -0.03        2.56265
               C 1 -- C 3                   -0.13        2.56685
              H 2  -- H 17                  -0.01        2.60339
              H 4  -- H 20                  -0.01        2.60692
               O 1 -- O 3                   -0.08        2.62059
              H 14 -- C 2                   -0.04        2.62852
              H 11 -- O 1                   -0.01        2.63601
              H 15 -- C 4                   -0.04        2.65439
              H 5  -- C 1                   -0.05        2.68146
              H 16 -- C 1                   -0.05        2.69598
              H 7  -- N 1                   -0.02        2.69952
              H 15 -- C 2                   -0.03        2.71350
              H 3  -- C 7                   -0.04        2.71946
              H 1  -- C 3                   -0.04        2.72030
              H 3  -- N 1                   -0.03        2.72199
              H 5  -- C 5                   -0.04        2.75190
               O 2 -- O 3                   -0.07        2.75303
               C 5 -- O 2                   -0.12        2.75330
              H 9  -- C 3                   -0.04        2.75468
              H 17 -- C 1                   -0.03        2.76008
              H 4  -- N 1                   -0.02        2.76038
              H 19 -- C 2                   -0.04        2.76673
               O 1 -- O 2                   -0.07        2.76675
              H 1  -- C 6                   -0.04        2.77138
              H 8  -- O 2                    0.00        2.78244
              H 4  -- C 7                   -0.03        2.78740
              H 20 -- C 2                   -0.04        2.79824
              H 2  -- C 3                   -0.02        2.80416
              H 2  -- C 6                   -0.03        2.80500
              H 8  -- N 1                   -0.02        2.81295
              H 7  -- C 1                   -0.03        2.83807
               C 5 -- O 3                   -0.10        2.85120
              H 7  -- H 15                  -0.00        2.85486
              H 6  -- C 5                   -0.02        2.85830
              H 2  -- C 4                   -0.02        2.88191
               C 4 -- Si 1                  -0.13        2.89559
              H 10 -- O 2                   -0.01        2.94081
              H 2  -- H 14                   0.03        2.94941
              H 1  -- H 15                   0.03        2.95598
              H 5  -- H 15                   0.03        2.95693
               C 5 -- O 1                   -0.08        2.96432
              H 4  -- H 14                  -0.00        2.97653
              H 12 -- O 2                   -0.01        2.98545
======================================================================
 
 
     Hirshfeld Analysis
     ------------------
Species   Ion     Hirshfeld Charge (e)
======================================
  H        1                 0.07
  H        2                 0.07
  H        3                 0.05
  H        4                 0.05
  H        5                 0.07
  H        6                 0.06
  H        7                 0.04
  H        8                 0.05
  H        9                 0.05
  H       10                 0.05
  H       11                 0.17
  H       12                 0.18
  H       13                 0.17
  H       14                 0.18
  H       15                 0.18
  H       16                 0.04
  H       17                 0.04
  H       18                 0.06
  H       19                 0.04
  H       20                 0.05
  C        1                 0.01
  C        2                -0.06
  C        3                 0.01
  C        4                -0.06
  C        5                -0.14
  C        6                -0.05
  C        7                -0.10
  N        1                 0.04
  O        1                -0.28
  O        2                -0.28
  O        3                -0.28
  Si       1                 0.47
======================================
 

Writing analysis data to Conf_0007.castep_bin

Writing model to Conf_0007.check
 
 A BibTeX formatted list of references used in this run has been written to 
 Conf_0007.bib
 
Initialisation time =     25.36 s
Calculation time    =    606.04 s
Finalisation time   =      1.14 s
Total time          =    632.54 s
Peak Memory Use     = 7910888 kB
 
Overall parallel efficiency rating: Satisfactory (67%)
 
Data was distributed by:-
G-vector (48-way); efficiency rating: Satisfactory (67%)
High Water Mark     = 1883980 kB
