 Job started on host drago31020072.mgmt.cc.csic.es
 at Sun Mar 31 01:19:55 2024

 +-------------------------------------------------+
 |                                                 |
 |      CCC   AA    SSS  TTTTT  EEEEE  PPPP        |
 |     C     A  A  S       T    E      P   P       |
 |     C     AAAA   SS     T    EEE    PPPP        |
 |     C     A  A     S    T    E      P           |
 |      CCC  A  A  SSS     T    EEEEE  P           |
 |                                                 |
 +-------------------------------------------------+
 |                                                 |
 | Materials Studio CASTEP version 2024            |
 | Ab Initio Total Energy Program                  |
 |                                                 |
 | Authors:                                        |
 | M. Segall, M. Probert, C. Pickard, P. Hasnip,   |
 | S. Clark, K. Refson, J. R. Yates,               |
 | A. Bartok-Partay, M. Payne                      |
 |                                                 |
 | Contributors:                                   |
 | P. Lindan, P. Haynes, J. White, V. Milman,      |
 | N. Govind, M. Gibson, P. Tulip, V. Cocula,      |
 | B. Montanari, D. Quigley, M. Glover,            |
 | L. Bernasconi, A. Perlov, M. Plummer,           |
 | E. McNellis, J. Meyer, J. Gale, D. Jochym       |
 | J. Aarons, B. Walker, R. Gillen, D. Jones       |
 | T. Green, I. J. Bush, C. J. Armstrong,          |
 | E. J. Higgins, E. L. Brown, M. S. McFly,        |
 | J. Wilkins, B-C. Shih, P. J. P. Byrne,          |
 | R. J. Maurer, J. C. Womack, J. Dziedzic,        |
 | L. LeBlanc, T. K. Stenczel, J. Kermode,         |
 | S. Sturniolo, B. Shi, B. Durham, M. Evans,      |
 | M. J. Smith, A. Tamerus, Z. Hawkhead,           |
 | V. Ravindran, T. Hollins, S. A. Joyce,          |
 | R. T. Strong, A. M. Reilly                      |
 |                                                 |
 | Copyright (c) 2000 - 2023                       |
 |                                                 |
 | Please cite                                     |
 |                                                 |
 |     "First principles methods using CASTEP"     |
 |                                                 |
 |         Zeitschrift fuer Kristallographie       |
 |           220(5-6) pp. 567-570 (2005)           |
 |                                                 |
 | S. J. Clark, M. D. Segall, C. J. Pickard,       |
 | P. J. Hasnip, M. J. Probert, K. Refson,         |
 | M. C. Payne                                     |
 |                                                 |
 |       in all publications arising from          |
 |              your use of CASTEP                 |
 |                                                 |
 +-------------------------------------------------+
 |                                                 |
 |              http://www.castep.org              |
 |                                                 |
 +-------------------------------------------------+
 
 
 This version was compiled for x86_64-rhel7-intel19.0 on Oct 24 2023
 Code version:    a9f326b
 Intel(R) Math Kernel Library Version 2019.0.4 
 Fundamental constants values: CODATA 2018
 
License checkout of MS_castep successful
 
 
 Atomic calculation performed for H: 1s1
 
 Converged in 41 iterations to an ae energy of -12.488 eV
 
 Identity difference: 2.63E-05
 
   ============================================================                
   | Pseudopotential Report - Date of generation 31-03-2024   |                
   ------------------------------------------------------------                
   | Element: H Ionic charge:  1.00 Level of theory: PBE      |                
   | Atomic Solver: Koelling-Harmon                           |                
   |                                                          |                
   |               Reference Electronic Structure             |                
   |         Orbital         Occupation         Energy        |                
   |            1s              1.000           -0.239        |                
   |                                                          |                
   |                 Pseudopotential Definition               |                
   |        Beta     l      e      Rc     scheme   norm       |                
   |          1      0   -0.239   0.599     qc      0         |                
   |          2      0    0.250   0.599     qc      0         |                
   |         loc     1    0.000   0.599     pn      0         |                
   |                                                          |                
   | Augmentation charge Rinner = 0.421                       |                
   | No partial core correction                               |                
   ------------------------------------------------------------                
   | "1|0.6|9|10|15|10UU(qc=8)[]"                             |                
   ------------------------------------------------------------                
   |      Author: Chris J. Pickard, Cambridge University      |                
   ============================================================                
 
 Doing a self consistent calculation for the test configuration
 
 Atomic calculation performed for H: 1s1
 
 Converged in 41 iterations to an ae energy of -12.488 eV
 
 ---------------------------------------
 AE eigenvalue nl 10 =       -0.23860176
 ---------------------------------------
 PS eigenvalue nl 10 =       -0.23857601
 ---------------------------------------
 Maximum eigenvalue error:   2.57E-05
 
 Derived cutoff energies: C=   1 M=   6 F=  10 E=  20
 
 Checking for ghost states up to   1.51185 Ha
 
 No Ghost States Identified
 
 ***************************************
 
 Atomic calculation performed for C: 1s2 2s2 2p2
 
 Converged in 54 iterations to an ae energy of -1027.632 eV
 
 Identity difference: 2.37E-04
 
   ============================================================                
   | Pseudopotential Report - Date of generation 31-03-2024   |                
   ------------------------------------------------------------                
   | Element: C Ionic charge:  4.00 Level of theory: PBE      |                
   | Atomic Solver: Koelling-Harmon                           |                
   |                                                          |                
   |               Reference Electronic Structure             |                
   |         Orbital         Occupation         Energy        |                
   |            2s              2.000           -0.505        |                
   |            2p              2.000           -0.194        |                
   |                                                          |                
   |                 Pseudopotential Definition               |                
   |        Beta     l      e      Rc     scheme   norm       |                
   |          1      0   -0.505   1.395     qc      0         |                
   |          2      0    0.250   1.395     qc      0         |                
   |          3      1   -0.194   1.395     qc      0         |                
   |          4      1    0.250   1.395     qc      0         |                
   |         loc     2    0.000   1.395     pn      0         |                
   |                                                          |                
   | Augmentation charge Rinner = 0.983                       |                
   | Partial core correction Rc = 0.983                       |                
   ------------------------------------------------------------                
   | "2|1.4|11|12|14.7|20UU:21UU(qc=7)[]"                     |                
   ------------------------------------------------------------                
   |      Author: Chris J. Pickard, Cambridge University      |                
   ============================================================                
 
 Doing a self consistent calculation for the test configuration
 
 Atomic calculation performed for C: 1s2 2s2 2p2
 
 Converged in 54 iterations to an ae energy of -1027.632 eV
 
 ---------------------------------------
 AE eigenvalue nl 10 =      -10.04653081
 AE eigenvalue nl 20 =       -0.50533429
 AE eigenvalue nl 21 =       -0.19423807
 ---------------------------------------
 PS eigenvalue nl 20 =       -0.50531853
 PS eigenvalue nl 21 =       -0.19422214
 ---------------------------------------
 Maximum eigenvalue error:   1.59E-05
 
 Derived cutoff energies: C=   6 M=  10 F=  12 E=  16
 
 Checking for ghost states up to   1.47183 Ha
 
 No Ghost States Identified
 
 ***************************************
 
 Atomic calculation performed for N: 1s2 2s2 2p3
 
 Converged in 55 iterations to an ae energy of -1481.742 eV
 
 Identity difference: 2.27E-04
 
   ============================================================                
   | Pseudopotential Report - Date of generation 31-03-2024   |                
   ------------------------------------------------------------                
   | Element: N Ionic charge:  5.00 Level of theory: PBE      |                
   | Atomic Solver: Koelling-Harmon                           |                
   |                                                          |                
   |               Reference Electronic Structure             |                
   |         Orbital         Occupation         Energy        |                
   |            2s              2.000           -0.683        |                
   |            2p              3.000           -0.261        |                
   |                                                          |                
   |                 Pseudopotential Definition               |                
   |        Beta     l      e      Rc     scheme   norm       |                
   |          1      0   -0.683   1.100     qc      0         |                
   |          2      0    0.250   1.100     qc      0         |                
   |          3      1   -0.261   1.100     qc      0         |                
   |          4      1    0.250   1.100     qc      0         |                
   |         loc     2    0.000   1.100     pn      0         |                
   |                                                          |                
   | Augmentation charge Rinner = 0.769                       |                
   | Partial core correction Rc = 0.769                       |                
   ------------------------------------------------------------                
   | "2|1.1|12|16|19|20UU:21UU(qc=7)[]"                       |                
   ------------------------------------------------------------                
   |      Author: Chris J. Pickard, Cambridge University      |                
   ============================================================                
 
 Doing a self consistent calculation for the test configuration
 
 Atomic calculation performed for N: 1s2 2s2 2p3
 
 Converged in 55 iterations to an ae energy of -1481.742 eV
 
 ---------------------------------------
 AE eigenvalue nl 10 =      -14.13820921
 AE eigenvalue nl 20 =       -0.68290611
 AE eigenvalue nl 21 =       -0.26054797
 ---------------------------------------
 PS eigenvalue nl 20 =       -0.68291221
 PS eigenvalue nl 21 =       -0.26051708
 ---------------------------------------
 Maximum eigenvalue error:   3.09E-05
 
 Derived cutoff energies: C=  10 M=  15 F=  18 E=  23
 
 Checking for ghost states up to   1.48495 Ha
 
 No Ghost States Identified
 
 ***************************************
 
 Atomic calculation performed for O: 1s2 2s2 2p4
 
 Converged in 61 iterations to an ae energy of -2040.902 eV
 
 Identity difference: 4.10E-04
 
   ============================================================                
   | Pseudopotential Report - Date of generation 31-03-2024   |                
   ------------------------------------------------------------                
   | Element: O Ionic charge:  6.00 Level of theory: PBE      |                
   | Atomic Solver: Koelling-Harmon                           |                
   |                                                          |                
   |               Reference Electronic Structure             |                
   |         Orbital         Occupation         Energy        |                
   |            2s              2.000           -0.881        |                
   |            2p              4.000           -0.332        |                
   |                                                          |                
   |                 Pseudopotential Definition               |                
   |        Beta     l      e      Rc     scheme   norm       |                
   |          1      0   -0.881   1.100     qc      0         |                
   |          2      0    0.250   1.100     qc      0         |                
   |          3      1   -0.332   1.100     qc      0         |                
   |          4      1    0.250   1.100     qc      0         |                
   |         loc     2    0.000   1.100     pn      0         |                
   |                                                          |                
   | Augmentation charge Rinner = 0.769                       |                
   | Partial core correction Rc = 0.769                       |                
   ------------------------------------------------------------                
   | "2|1.1|14|18|21|20UU:21UU(qc=7)[]"                       |                
   ------------------------------------------------------------                
   |      Author: Chris J. Pickard, Cambridge University      |                
   ============================================================                
 
 Doing a self consistent calculation for the test configuration
 
 Atomic calculation performed for O: 1s2 2s2 2p4
 
 Converged in 61 iterations to an ae energy of -2040.902 eV
 
 ---------------------------------------
 AE eigenvalue nl 10 =      -18.91475256
 AE eigenvalue nl 20 =       -0.88057101
 AE eigenvalue nl 21 =       -0.33186952
 ---------------------------------------
 PS eigenvalue nl 20 =       -0.88059206
 PS eigenvalue nl 21 =       -0.33182157
 ---------------------------------------
 Maximum eigenvalue error:   4.80E-05
 
 Derived cutoff energies: C=  14 M=  17 F=  20 E=  22
 
 Checking for ghost states up to   1.49452 Ha
 
 No Ghost States Identified
 
 ***************************************
 
 Atomic calculation performed for Si: 1s2 2s2 2p6 3s2 3p2
 
 Converged in 54 iterations to an ae energy of -7886.857 eV
 
 Identity difference: 1.35E-04
 
   ============================================================                
   | Pseudopotential Report - Date of generation 31-03-2024   |                
   ------------------------------------------------------------                
   | Element: Si Ionic charge:  4.00 Level of theory: PBE     |                
   | Atomic Solver: Koelling-Harmon                           |                
   |                                                          |                
   |               Reference Electronic Structure             |                
   |         Orbital         Occupation         Energy        |                
   |            3s              2.000           -0.397        |                
   |            3p              2.000           -0.150        |                
   |                                                          |                
   |                 Pseudopotential Definition               |                
   |        Beta     l      e      Rc     scheme   norm       |                
   |          1      0   -0.397   1.797     qc      0         |                
   |          2      0    0.250   1.797     qc      0         |                
   |          3      1   -0.150   1.797     qc      0         |                
   |          4      1    0.250   1.797     qc      0         |                
   |          5      2    0.000   1.797     qc      0         |                
   |          6      2    0.250   1.797     qc      0         |                
   |         loc     3    0.000   1.797     pn      0         |                
   |                                                          |                
   | Augmentation charge Rinner = 1.255                       |                
   | Partial core correction Rc = 1.255                       |                
   ------------------------------------------------------------                
   | "3|1.8|3.6|5|7|30UU:31UU:32UU[]"                         |                
   ------------------------------------------------------------                
   |      Author: Chris J. Pickard, Cambridge University      |                
   ============================================================                
 
 Doing a self consistent calculation for the test configuration
 
 Atomic calculation performed for Si: 1s2 2s2 2p6 3s2 3p2
 
 Converged in 54 iterations to an ae energy of -7886.857 eV
 
 ---------------------------------------
 AE eigenvalue nl 10 =      -65.63192903
 AE eigenvalue nl 20 =       -5.12654326
 AE eigenvalue nl 21 =       -3.51173659
 AE eigenvalue nl 30 =       -0.39736430
 AE eigenvalue nl 31 =       -0.14998156
 ---------------------------------------
 PS eigenvalue nl 30 =       -0.39734922
 PS eigenvalue nl 31 =       -0.14996719
 ---------------------------------------
 Maximum eigenvalue error:   1.51E-05
 
 Derived cutoff energies: C=   1 M=   3 F=   6 E=   6
 
 Checking for ghost states up to   1.41161 Ha
 
 No Ghost States Identified
 
 ***************************************
 
 Pseudo atomic calculation performed for H 1s1
 
 Converged in 13 iterations to a total energy of -12.4790 eV
 
 Pseudo atomic calculation performed for C 2s2 2p2
 
 Converged in 17 iterations to a total energy of -148.5208 eV
 
 Pseudo atomic calculation performed for N 2s2 2p3
 
 Converged in 21 iterations to a total energy of -268.1820 eV
 
 Pseudo atomic calculation performed for O 2s2 2p4
 
 Converged in 23 iterations to a total energy of -432.6536 eV
 
 Pseudo atomic calculation performed for Si 3s2 3p2
 
 Converged in 11 iterations to a total energy of -165.0683 eV
 Calculation parallelised over 48 processes.
 Data is distributed by G-vector(48-way)

 ************************************ Title ************************************
 CASTEP calculation from BIOVIA Materials Studio 2024

 ***************************** General Parameters ******************************
  
 output verbosity                               : normal  (1)
 write checkpoint data to                       : Conf_0020.check
 type of calculation                            : geometry optimization
 stress calculation                             : off
 density difference calculation                 : off
 electron localisation func (ELF) calculation   : off
 Hirshfeld analysis                             : on
 polarisation (Berry phase) analysis            : off
 molecular orbital projected DOS                : off
 deltaSCF calculation                           : off
 unlimited duration calculation
 timing information                             : on
 memory usage estimate                          : on
 write extra output files                       : on
 write final potential to formatted file        : off
 write final density to formatted file          : off
 write BibTeX reference list                    : on
 write OTFG pseudopotential files               : on
 write electrostatic potential file             : on
 write bands file                               : on
 checkpoint writing                             : both castep_bin and check files
  
 output         length unit                     : A
 output           mass unit                     : amu
 output           time unit                     : ps
 output         charge unit                     : e
 output           spin unit                     : hbar/2
 output         energy unit                     : eV
 output          force unit                     : eV/A
 output       velocity unit                     : A/ps
 output       pressure unit                     : GPa
 output     inv_length unit                     : 1/A
 output      frequency unit                     : cm-1
 output force constant unit                     : eV/A**2
 output         volume unit                     : A**3
 output   IR intensity unit                     : (D/A)**2/amu
 output         dipole unit                     : D
 output         efield unit                     : eV/A/e
 output        entropy unit                     : J/mol/K
 output    efield chi2 unit                     : pm/V
  
 wavefunctions paging                           : none
 random number generator seed                   :   11958612
 data distribution                              : optimal for this architecture
 optimization strategy                          : balance speed and memory

 *********************** Exchange-Correlation Parameters ***********************
  
 using functional                               : Perdew Burke Ernzerhof
 relativistic treatment                         : Koelling-Harmon
 DFT+D: Semi-empirical dispersion correction    : on
 SEDC with                                      : G06 correction scheme

 ************************* Pseudopotential Parameters **************************
  
 pseudopotential representation                 : reciprocal space
 <beta|phi> representation                      : reciprocal space
 spin-orbit coupling                            : off

 **************************** Basis Set Parameters *****************************
  
 plane wave basis set cut-off                   :   600.0000   eV
 size of standard grid                          :     1.5000
 size of   fine   gmax                          :    18.8237   1/A
 largest prime factor in FFT                    :          5
 finite basis set correction                    : none

 **************************** Electronic Parameters ****************************
  
 number of  electrons                           :  74.00    
 net charge of system                           : +1.000    
 treating system as non-spin-polarized
 number of bands                                :         37

 ********************* Electronic Minimization Parameters **********************
  
 Method: Treating system as non-metallic,
         and number of  SD  steps               :          1
         and number of  CG  steps               :          4
  
 total energy / atom convergence tol.           : 0.2000E-05   eV
 eigen-energy convergence tolerance             : 0.1000E-05   eV
 max force / atom convergence tol.              : ignored
 convergence tolerance window                   :          3   cycles
 max. number of SCF cycles                      :        100
 periodic dipole correction                     : NONE

 ************************** Density Mixing Parameters **************************
  
 density-mixing scheme                          : Pulay
 max. length of mixing history                  :         20
 charge density mixing amplitude                : 0.5000    
 cut-off energy for mixing                      :  600.0       eV
 charge density mixing g-vector                 :  1.500       1/A

 *********************** Population Analysis Parameters ************************
  
 Population analysis with cutoff                :  3.000       A
 Population analysis output                     : summary and pdos components

 ********************** Geometry Optimization Parameters ***********************
  
 optimization method                            : LBFGS
 max. no. of LBFGS updates                      : unbounded
 preconditioned LBFGS is activated
 preconditioner type                            : EXP
     stabilization constant                     :     0.1000
     parameter A                                :     3.0000
     nearest neighbor distance                  : automatic
     cut-off distance                           : automatic
     parameter mu                               : automatic
 variable cell method                           : fixed basis quality
 max. number of steps                           :        300
 estimated bulk modulus                         :  500.0       GPa
 estimated <frequency>                          :  1668.       cm-1
 geom line minimiser                            : on
 with line minimiser tolerance                  :     0.4000
 total energy convergence tolerance             : 0.2000E-04   eV/atom
        max ionic |force| tolerance             : 0.5000E-01   eV/A
 max ionic |displacement| tolerance             : 0.2000E-02   A
   max |stress component| tolerance             : 0.1000       GPa
 convergence tolerance window                   :          2   steps
 backup results every                           :          5   steps
 write geom trajectory file                     : on

 *******************************************************************************
  
 
                           -------------------------------
                                      Unit Cell
                           -------------------------------
        Real Lattice(A)                      Reciprocal Lattice(1/A)
    13.4840002    -0.0000006    -0.0000006        0.465973392   0.000000000   0.000000000
     0.0000000    20.4006996    -0.0000009        0.000000013   0.307988717   0.000000000
     0.0000000     0.0000000    45.0000000        0.000000006   0.000000006   0.139626340
 
                       Lattice parameters(A)       Cell Angles
                    a =     13.484000          alpha =   90.000003
                    b =     20.400700          beta  =   90.000003
                    c =     45.000000          gamma =   90.000003
 
                       Current cell volume =         12378.736702       A**3
                                   density =             0.015698   AMU/A**3
                                           =             0.026068     g/cm^3
 
                           -------------------------------
                                     Cell Contents
                           -------------------------------
                         Total number of ions in cell =   32
                      Total number of species in cell =    5
                        Max number of any one species =   20
 
            xxxxxxxxxxxxxxxxxxxxxxxxxxxxxxxxxxxxxxxxxxxxxxxxxxxxxxxxxxxx
            x  Element    Atom        Fractional coordinates of atoms  x
            x            Number           u          v          w      x
            x----------------------------------------------------------x
            x  H            1         0.328131   0.447046   0.539201   x 
            x  H            2         0.437790   0.417697   0.520926   x 
            x  H            3         0.422509   0.546675   0.556810   x 
            x  H            4         0.530676   0.518533   0.538200   x 
            x  H            5         0.239720   0.451826   0.490519   x 
            x  H            6         0.288649   0.502729   0.461981   x 
            x  H            7         0.310953   0.396800   0.443945   x 
            x  H            8         0.347507   0.362719   0.478147   x 
            x  H            9         0.484590   0.368778   0.440470   x 
            x  H           10         0.515155   0.408830   0.473849   x 
            x  H           11         0.505938   0.592226   0.448977   x 
            x  H           12         0.436236   0.480822   0.386572   x 
            x  H           13         0.634411   0.523008   0.406994   x 
            x  H           14         0.335765   0.544251   0.507432   x 
            x  H           15         0.435412   0.517472   0.490534   x 
            x  H           16         0.426918   0.446696   0.589661   x 
            x  H           17         0.535317   0.419407   0.571156   x 
            x  H           18         0.578794   0.476385   0.618630   x 
            x  H           19         0.516796   0.548498   0.606453   x 
            x  H           20         0.625881   0.521345   0.587814   x 
            x  C            1         0.398557   0.461870   0.528710   x 
            x  C            2         0.462888   0.502189   0.549813   x 
            x  C            3         0.308733   0.466164   0.479064   x 
            x  C            4         0.356514   0.406426   0.463925   x 
            x  C            5         0.466259   0.411959   0.454240   x 
            x  C            6         0.493590   0.463777   0.577659   x 
            x  C            7         0.557251   0.504700   0.598786   x 
            x  N            1         0.372166   0.503444   0.500906   x 
            x  O            1         0.424508   0.501724   0.405092   x 
            x  O            2         0.613010   0.490132   0.420448   x 
            x  O            3         0.486165   0.550271   0.456117   x 
            x  Si           1         0.499834   0.489129   0.432760   x 
            xxxxxxxxxxxxxxxxxxxxxxxxxxxxxxxxxxxxxxxxxxxxxxxxxxxxxxxxxxxx
 
 
                         No user defined ionic velocities
 
                           -------------------------------
                                   Details of Species
                           -------------------------------
 
                               Mass of species in AMU
                                    H    1.0080000
                                    C   12.0109997
                                    N   14.0070000
                                    O   15.9989996
                                    Si   28.0849991
 
                          Electric Quadrupole Moment (Barn)
                                    H    0.0028600 Isotope  2
                                    C    0.0332700 Isotope 11
                                    N    0.0204400 Isotope 14
                                    O   -0.0255800 Isotope 17
                                    Si    1.0000000 No Isotope Defined
 
                          Files used for pseudopotentials:
                                    H 1|0.6|9|10|15|10UU(qc=8)[]
                                    C 2|1.4|11|12|14.7|20UU:21UU(qc=7)[]
                                    N 2|1.1|12|16|19|20UU:21UU(qc=7)[]
                                    O 2|1.1|14|18|21|20UU:21UU(qc=7)[]
                                    Si 3|1.8|3.6|5|7|30UU:31UU:32UU[]
 
                           -------------------------------
                              k-Points For BZ Sampling
                           -------------------------------
                       MP grid size for SCF calculation is  1  1  1
                            with an offset of   0.000  0.000  0.000
                       Number of kpoints used =             1
 
                           -------------------------------
                               Symmetry and Constraints
                           -------------------------------
 
                      Maximum deviation from symmetry =  0.00000         ANG
 
                      Number of symmetry operations   =           1
                      Number of nonlinear constraints =           3
         There are no ionic constraints specified or generated for this cell
                      Point group of crystal =     1: C1, 1, 1
                      Space group of crystal =     1: P1, P 1
 
             Set iprint > 1 for details on symmetry rotations/translations
 
                         Centre of mass is NOT constrained
 
                         Number of cell constraints= 6
                         Cell constraints are:  0 0 0 0 0 0
 
                         External pressure/stress (GPa)
                          0.00000   0.00000   0.00000
                                    0.00000   0.00000
                                              0.00000
 
                                --------------------
                                  DFT-D parameters
                                --------------------
 
                          Dispersion-correction scheme : G06       
                        Parameter s6 :   0.750000 (default)
                        Parameter d  :  20.000000 (default)
 
        xxxxxxxxxxxxxxxxxxxxxxxxxxxxxxxxxxxxxxxxxxxxxxxxxxxxxxxxxxxxxxxxxxxx
        x              Atomic DFT-D parameters                             x
        x  Species      C6            R0                                   x
        x               eV A^6        Ang                                  x
        x------------------------------------------------------------------x
        x  H             1.4510       1.0010   (default)                   x
        x  C            18.1375       1.4520   (default)                   x
        x  N            12.7481       1.3970   (default)                   x
        x  O             7.2550       1.3420   (default)                   x
        x  Si           95.6622       1.7160   (default)                   x
        xxxxxxxxxxxxxxxxxxxxxxxxxxxxxxxxxxxxxxxxxxxxxxxxxxxxxxxxxxxxxxxxxxxx
 
 
+---------------- MEMORY AND SCRATCH DISK ESTIMATES PER PROCESS --------------+
|                                                     Memory          Disk    |
| Baseline code, static data and system overhead     6530.0 MB         0.0 MB |
| BLAS internal memory storage                          0.0 MB         0.0 MB |
| Model and support data                              540.6 MB         0.0 MB |
| Electronic energy minimisation requirements          31.8 MB         0.0 MB |
| Force calculation requirements                        6.8 MB         0.0 MB |
|                                               ----------------------------- |
| Approx. total storage required per process         7102.3 MB         0.0 MB |
|                                                                             |
| Requirements will fluctuate during execution and may exceed these estimates |
+-----------------------------------------------------------------------------+
Calculating approximate eigenstates for fixed initial Hamiltonian
Cut-off for approx. calculation is  119.774 eV
Improving approx. states at cut-off of  300.000 eV
Resetting cut-off to  600.000 eV
Calculating total energy with cut-off of  600.000 eV.
------------------------------------------------------------------------ <-- SCF
SCF loop      Energy                           Energy gain       Timer   <-- SCF
                                               per atom          (sec)   <-- SCF
------------------------------------------------------------------------ <-- SCF
Initial  -2.93997424E+003                                         30.21  <-- SCF
      1  -3.20289131E+003                    8.21615846E+000      31.01  <-- SCF
      2  -3.20327453E+003                    1.19757568E-002      31.91  <-- SCF
      3  -3.19289931E+003                   -3.24225576E-001      32.93  <-- SCF
      4  -3.19176702E+003                   -3.53842374E-002      34.10  <-- SCF
      5  -3.19123569E+003                   -1.66039758E-002      35.11  <-- SCF
      6  -3.19116782E+003                   -2.12093644E-003      36.39  <-- SCF
      7  -3.19112727E+003                   -1.26718727E-003      37.40  <-- SCF
      8  -3.19112713E+003                   -4.25329387E-006      38.49  <-- SCF
      9  -3.19112038E+003                   -2.11220602E-004      39.49  <-- SCF
     10  -3.19110749E+003                   -4.02563359E-004      40.53  <-- SCF
     11  -3.19108846E+003                   -5.94831095E-004      41.52  <-- SCF
     12  -3.19101908E+003                   -2.16814221E-003      42.52  <-- SCF
     13  -3.19095090E+003                   -2.13053467E-003      43.55  <-- SCF
     14  -3.19087898E+003                   -2.24744066E-003      44.56  <-- SCF
     15  -3.19081973E+003                   -1.85157751E-003      45.55  <-- SCF
     16  -3.19077841E+003                   -1.29138370E-003      46.55  <-- SCF
     17  -3.19075064E+003                   -8.67909476E-004      47.53  <-- SCF
     18  -3.19072550E+003                   -7.85460082E-004      48.50  <-- SCF
     19  -3.19069806E+003                   -8.57456128E-004      49.49  <-- SCF
     20  -3.19067691E+003                   -6.60857806E-004      50.42  <-- SCF
     21  -3.19064938E+003                   -8.60408007E-004      51.41  <-- SCF
     22  -3.19063992E+003                   -2.95610975E-004      52.47  <-- SCF
     23  -3.19063899E+003                   -2.90571695E-005      53.49  <-- SCF
     24  -3.19063933E+003                    1.05131048E-005      54.46  <-- SCF
     25  -3.19064285E+003                    1.09999632E-004      55.30  <-- SCF
     26  -3.19064833E+003                    1.71191301E-004      56.21  <-- SCF
     27  -3.19065388E+003                    1.73563516E-004      57.07  <-- SCF
     28  -3.19065548E+003                    5.01020290E-005      57.86  <-- SCF
     29  -3.19065922E+003                    1.16695848E-004      58.74  <-- SCF
     30  -3.19066120E+003                    6.18338176E-005      59.54  <-- SCF
     31  -3.19066295E+003                    5.48505360E-005      60.33  <-- SCF
     32  -3.19066454E+003                    4.95237328E-005      61.13  <-- SCF
     33  -3.19066560E+003                    3.32851933E-005      61.92  <-- SCF
     34  -3.19066669E+003                    3.41450279E-005      62.71  <-- SCF
     35  -3.19066740E+003                    2.21946559E-005      63.50  <-- SCF
     36  -3.19066821E+003                    2.52580423E-005      64.30  <-- SCF
     37  -3.19066872E+003                    1.57530744E-005      65.08  <-- SCF
     38  -3.19066919E+003                    1.46595866E-005      65.87  <-- SCF
     39  -3.19066959E+003                    1.26448594E-005      66.67  <-- SCF
     40  -3.19066984E+003                    7.72036598E-006      67.45  <-- SCF
     41  -3.19067015E+003                    9.69950413E-006      68.24  <-- SCF
     42  -3.19067031E+003                    5.16775396E-006      69.03  <-- SCF
     43  -3.19067049E+003                    5.55705721E-006      69.82  <-- SCF
     44  -3.19067057E+003                    2.56443470E-006      70.61  <-- SCF
     45  -3.19067064E+003                    2.21258983E-006      71.40  <-- SCF
     46  -3.19067068E+003                    1.06593184E-006      72.19  <-- SCF
     47  -3.19067073E+003                    1.48138282E-006      72.98  <-- SCF
     48  -3.19067074E+003                    3.68928036E-007      73.79  <-- SCF
------------------------------------------------------------------------ <-- SCF
 
Final energy =  -3190.670737468     eV
(energy not corrected for finite basis set)
 
(SEDC) Total Energy Correction : -0.834404E+00 eV

Dispersion corrected final energy* =  -3191.505141358     eV

Writing analysis data to Conf_0020.castep_bin

Writing model to Conf_0020.check

WARNING - nonlinear constraints cannot be used with LBFGS algorithm
        - consider setting geom_method=DELOCALIZED
 
        => Turning nonlinear constraints OFF
 
+---------------- MEMORY AND SCRATCH DISK ESTIMATES PER PROCESS --------------+
|                                                     Memory          Disk    |
| Model and support data                              550.1 MB         0.0 MB |
| Electronic energy minimisation requirements          31.8 MB         0.0 MB |
| Geometry minimisation requirements                   34.8 MB         0.0 MB |
|                                               ----------------------------- |
| Approx. total storage required per process          616.7 MB         0.0 MB |
|                                                                             |
| Requirements will fluctuate during execution and may exceed these estimates |
+-----------------------------------------------------------------------------+
 
 
 ************************************** Forces **************************************
 *                                                                                  *
 *                           Cartesian components (eV/A)                            *
 * -------------------------------------------------------------------------------- *
 *                         x                    y                    z              *
 *                                                                                  *
 * H               1      0.08111              0.04432             -0.14984         *
 * H               2     -0.13561              0.20433             -0.09653         *
 * H               3     -0.00093              0.01077             -0.05945         *
 * H               4     -0.06202             -0.00783             -0.05065         *
 * H               5      0.23079              0.06602              0.03102         *
 * H               6      0.06663             -0.11616              0.10976         *
 * H               7      0.04932              0.11983              0.21520         *
 * H               8      0.07879              0.14127             -0.02835         *
 * H               9     -0.00072              0.18565              0.06002         *
 * H              10      0.02808             -0.02605              0.00928         *
 * H              11      0.21109              0.94834             -0.18985         *
 * H              12      0.11970             -0.39688             -0.88599         *
 * H              13      0.31925              0.66593             -0.72341         *
 * H              14     -0.25049              0.59360              0.23281         *
 * H              15      0.77853              0.57158             -0.58226         *
 * H              16      0.03612             -0.00123             -0.11038         *
 * H              17     -0.09805              0.07752             -0.06834         *
 * H              18     -0.09754              0.05061             -0.12014         *
 * H              19      0.00325             -0.05742             -0.01892         *
 * H              20     -0.08153              0.00711              0.01889         *
 * C               1      0.05940              0.61127             -0.14165         *
 * C               2      0.02490             -0.04634              0.04007         *
 * C               3     -0.42231              0.40290             -0.67963         *
 * C               4      0.01292             -0.19038              0.08394         *
 * C               5      0.22456              0.55183              0.02086         *
 * C               6     -0.03076             -0.20983              0.13403         *
 * C               7      0.05832              0.12183              0.05715         *
 * N               1     -0.26634             -2.55055              1.09298         *
 * O               1     -0.79444              0.56782              0.66386         *
 * O               2      0.32308             -1.14441              0.75916         *
 * O               3     -0.57978             -0.37834              0.91849         *
 * Si              1      0.11466             -0.81712             -0.54213         *
 *                                                                                  *
 ************************************************************************************
 EXP precond LBFGS => estimated nearest neighbor distance :  1.624       A
 EXP precond LBFGS => estimated cutoff distance :  3.247       A
 doing test perturbation to get energy scale for EXP preconditioner
 
                           -------------------------------
                                     Cell Contents
                           -------------------------------
 
            xxxxxxxxxxxxxxxxxxxxxxxxxxxxxxxxxxxxxxxxxxxxxxxxxxxxxxxxxxxxxxxxx
            x  Element         Atom        Fractional coordinates of atoms  x
            x                 Number           u          v          w      x
            x---------------------------------------------------------------x
            x  H                 1         0.329021   0.447786   0.539464   x
            x  H                 2         0.438868   0.418468   0.521208   x
            x  H                 3         0.423566   0.547223   0.557054   x
            x  H                 4         0.531849   0.519148   0.538464   x
            x  H                 5         0.240407   0.452560   0.490828   x
            x  H                 6         0.289453   0.503377   0.462310   x
            x  H                 7         0.311807   0.397586   0.444285   x
            x  H                 8         0.348435   0.363515   0.478466   x
            x  H                 9         0.485724   0.369574   0.440811   x
            x  H                10         0.516317   0.409609   0.474171   x
            x  H                11         0.507092   0.592649   0.449315   x
            x  H                12         0.437312   0.481511   0.386931   x
            x  H                13         0.635614   0.523613   0.407349   x
            x  H                14         0.336670   0.544805   0.507727   x
            x  H                15         0.436487   0.518089   0.490843   x
            x  H                16         0.427981   0.447437   0.589865   x
            x  H                17         0.536494   0.420177   0.571383   x
            x  H                18         0.579992   0.477082   0.618795   x
            x  H                19         0.517959   0.549041   0.606635   x
            x  H                20         0.627085   0.521954   0.588020   x
            x  C                 1         0.399577   0.462589   0.528984   x
            x  C                 2         0.463998   0.502838   0.550065   x
            x  C                 3         0.309581   0.466877   0.479381   x
            x  C                 4         0.357460   0.407206   0.464253   x
            x  C                 5         0.467373   0.412735   0.454574   x
            x  C                 6         0.494733   0.464494   0.577878   x
            x  C                 7         0.558440   0.505344   0.598979   x
            x  N                 1         0.373141   0.504090   0.501207   x
            x  O                 1         0.425567   0.502374   0.405448   x
            x  O                 2         0.614214   0.490805   0.420798   x
            x  O                 3         0.487300   0.550809   0.456450   x
            x  Si                1         0.500983   0.489803   0.433106   x
            xxxxxxxxxxxxxxxxxxxxxxxxxxxxxxxxxxxxxxxxxxxxxxxxxxxxxxxxxxxxxxxxx
 
 
------------------------------------------------------------------------ <-- SCF
SCF loop      Energy                           Energy gain       Timer   <-- SCF
                                               per atom          (sec)   <-- SCF
------------------------------------------------------------------------ <-- SCF
Initial  -3.19150767E+003                                         75.75  <-- SCF
      1  -3.19065092E+003                   -2.67735182E-002      76.54  <-- SCF
      2  -3.19067727E+003                    8.23319135E-004      77.71  <-- SCF
      3  -3.19065068E+003                   -8.30676360E-004      78.72  <-- SCF
      4  -3.19066730E+003                    5.19309288E-004      79.72  <-- SCF
      5  -3.19066750E+003                    6.30686203E-006      80.55  <-- SCF
      6  -3.19066764E+003                    4.35971474E-006      81.31  <-- SCF
      7  -3.19066771E+003                    2.12553900E-006      82.07  <-- SCF
      8  -3.19066776E+003                    1.55604425E-006      82.84  <-- SCF
      9  -3.19066781E+003                    1.39565976E-006      83.60  <-- SCF
     10  -3.19066783E+003                    7.51859098E-007      84.37  <-- SCF
     11  -3.19066787E+003                    1.14929976E-006      85.13  <-- SCF
------------------------------------------------------------------------ <-- SCF
 
Final energy =  -3190.667866444     eV
(energy not corrected for finite basis set)
 
(SEDC) Total Energy Correction : -0.834809E+00 eV

Dispersion corrected final energy* =  -3191.502675092     eV
 
 ************************************** Forces **************************************
 *                                                                                  *
 *                           Cartesian components (eV/A)                            *
 * -------------------------------------------------------------------------------- *
 *                         x                    y                    z              *
 *                                                                                  *
 * H               1      0.11181              0.04920             -0.14666         *
 * H               2     -0.13758              0.17389             -0.09485         *
 * H               3     -0.01062              0.04172             -0.04060         *
 * H               4     -0.05061             -0.00692             -0.05481         *
 * H               5      0.27694              0.06541              0.02490         *
 * H               6      0.06484             -0.08529              0.08301         *
 * H               7      0.06695              0.09853              0.20496         *
 * H               8      0.08375              0.11503             -0.01794         *
 * H               9     -0.01084              0.17151              0.04670         *
 * H              10      0.01981             -0.03232              0.00374         *
 * H              11      0.27353              1.06208             -0.21699         *
 * H              12      0.12573             -0.40764             -0.90806         *
 * H              13      0.32763              0.69568             -0.76042         *
 * H              14     -0.26077              0.64959              0.23447         *
 * H              15      0.73625              0.56587             -0.57041         *
 * H              16      0.03964             -0.00794             -0.11265         *
 * H              17     -0.10681              0.04001             -0.08012         *
 * H              18     -0.07597             -0.00399             -0.08539         *
 * H              19     -0.00335             -0.01889              0.00476         *
 * H              20     -0.08065              0.00674              0.01021         *
 * C               1      0.02369              0.57440             -0.12587         *
 * C               2      0.03750             -0.04345              0.01117         *
 * C               3     -0.42792              0.36994             -0.64660         *
 * C               4      0.03306             -0.20548              0.05882         *
 * C               5      0.18073              0.53306              0.03313         *
 * C               6     -0.04909             -0.24493              0.15071         *
 * C               7      0.06556              0.11849              0.03647         *
 * N               1     -0.24961             -2.36932              1.07307         *
 * O               1     -0.79117              0.57603              0.69491         *
 * O               2      0.27120             -1.21072              0.79377         *
 * O               3     -0.61197             -0.41174              0.99092         *
 * Si              1      0.12834             -0.85857             -0.59435         *
 *                                                                                  *
 ************************************************************************************
 EXP precond LBFGS => estimated parameter mu :  1.000       eV/A**2
 LBFGS: finished iteration     0 with enthalpy= -3.19150514E+003 eV
  
 +-----------+-----------------+-----------------+------------+-----+ <-- LBFGS
 | Parameter |      value      |    tolerance    |    units   | OK? | <-- LBFGS
 +-----------+-----------------+-----------------+------------+-----+ <-- LBFGS
 |  dE/ion   |   0.000000E+000 |   2.000000E-005 |         eV | No  | <-- LBFGS
 |  |F|max   |   2.612942E+000 |   5.000000E-002 |       eV/A | No  | <-- LBFGS
 |  |dR|max  |   5.485433E-015 |   2.000000E-003 |          A | No  | <-- LBFGS
 +-----------+-----------------+-----------------+------------+-----+ <-- LBFGS
  

================================================================================
 Starting LBFGS iteration          1 ...
================================================================================
  
 +------------+-------------+-------------+-----------------+ <-- min LBFGS
 |    Step    |   lambda    |   F.delta'  |    enthalpy     | <-- min LBFGS
 +------------+-------------+-------------+-----------------+ <-- min LBFGS
 |  previous  |    0.000000 |    1.982062 |    -3191.505141 | <-- min LBFGS
 +------------+-------------+-------------+-----------------+ <-- min LBFGS
  

--------------------------------------------------------------------------------
 LBFGS: starting iteration         1 with trial guess (lambda=  0.633541)
--------------------------------------------------------------------------------
 
                           -------------------------------
                                     Cell Contents
                           -------------------------------
 
            xxxxxxxxxxxxxxxxxxxxxxxxxxxxxxxxxxxxxxxxxxxxxxxxxxxxxxxxxxxxxxxxx
            x  Element         Atom        Fractional coordinates of atoms  x
            x                 Number           u          v          w      x
            x---------------------------------------------------------------x
            x  H                 1         0.328515   0.448454   0.538917   x
            x  H                 2         0.436938   0.419939   0.520795   x
            x  H                 3         0.421237   0.547338   0.556587   x
            x  H                 4         0.529001   0.519130   0.537981   x
            x  H                 5         0.242048   0.452548   0.490870   x
            x  H                 6         0.289657   0.502304   0.462581   x
            x  H                 7         0.313521   0.398868   0.445052   x
            x  H                 8         0.350368   0.364984   0.478691   x
            x  H                 9         0.488043   0.372137   0.441118   x
            x  H                10         0.518475   0.410755   0.474340   x
            x  H                11         0.505942   0.597984   0.450442   x
            x  H                12         0.428495   0.475416   0.382508   x
            x  H                13         0.645981   0.518306   0.404759   x
            x  H                14         0.334486   0.544373   0.508923   x
            x  H                15         0.439901   0.517629   0.490700   x
            x  H                16         0.424962   0.447401   0.589071   x
            x  H                17         0.532269   0.420538   0.570669   x
            x  H                18         0.575082   0.477824   0.617892   x
            x  H                19         0.514005   0.549331   0.605983   x
            x  H                20         0.622387   0.522525   0.587436   x
            x  C                 1         0.398539   0.464184   0.528648   x
            x  C                 2         0.461668   0.502812   0.549707   x
            x  C                 3         0.308285   0.467153   0.478829   x
            x  C                 4         0.358895   0.407581   0.464626   x
            x  C                 5         0.470186   0.415287   0.454746   x
            x  C                 6         0.491168   0.464095   0.577427   x
            x  C                 7         0.554463   0.506072   0.598389   x
            x  N                 1         0.371990   0.497017   0.502775   x
            x  O                 1         0.413092   0.499988   0.404063   x
            x  O                 2         0.623277   0.479105   0.420788   x
            x  O                 3         0.482653   0.550120   0.458909   x
            x  Si                1         0.501094   0.482331   0.431565   x
            xxxxxxxxxxxxxxxxxxxxxxxxxxxxxxxxxxxxxxxxxxxxxxxxxxxxxxxxxxxxxxxxx
 
 
------------------------------------------------------------------------ <-- SCF
SCF loop      Energy                           Energy gain       Timer   <-- SCF
                                               per atom          (sec)   <-- SCF
------------------------------------------------------------------------ <-- SCF
Initial  -3.20379670E+003                                         86.46  <-- SCF
      1  -3.18523684E+003                   -5.79995476E-001      87.26  <-- SCF
      2  -3.18916575E+003                    1.22778496E-001      88.57  <-- SCF
      3  -3.18848494E+003                   -2.12753263E-002      89.75  <-- SCF
      4  -3.18857861E+003                    2.92706746E-003      90.86  <-- SCF
      5  -3.18862163E+003                    1.34448734E-003      91.90  <-- SCF
      6  -3.18862325E+003                    5.06564205E-005      93.06  <-- SCF
      7  -3.18862293E+003                   -1.02181025E-005      94.03  <-- SCF
      8  -3.18862263E+003                   -9.20120278E-006      94.90  <-- SCF
      9  -3.18862221E+003                   -1.33476425E-005      95.81  <-- SCF
     10  -3.18862190E+003                   -9.68507308E-006      96.69  <-- SCF
     11  -3.18862199E+003                    2.80059301E-006      97.45  <-- SCF
     12  -3.18862233E+003                    1.07226926E-005      98.29  <-- SCF
     13  -3.18862258E+003                    7.89269989E-006      99.06  <-- SCF
     14  -3.18862312E+003                    1.68859023E-005      99.83  <-- SCF
     15  -3.18862336E+003                    7.58447763E-006     100.60  <-- SCF
     16  -3.18862370E+003                    1.05540074E-005     101.37  <-- SCF
     17  -3.18862403E+003                    1.02697596E-005     102.15  <-- SCF
     18  -3.18862423E+003                    6.26960541E-006     102.92  <-- SCF
     19  -3.18862457E+003                    1.04383867E-005     103.72  <-- SCF
     20  -3.18862475E+003                    5.64386069E-006     104.52  <-- SCF
     21  -3.18862485E+003                    3.17816387E-006     105.30  <-- SCF
     22  -3.18862497E+003                    3.74152265E-006     106.09  <-- SCF
     23  -3.18862502E+003                    1.69214112E-006     106.87  <-- SCF
     24  -3.18862508E+003                    1.83514063E-006     107.66  <-- SCF
     25  -3.18862505E+003                   -8.54310133E-007     108.45  <-- SCF
------------------------------------------------------------------------ <-- SCF
 
Final energy =  -3188.625052830     eV
(energy not corrected for finite basis set)
 
(SEDC) Total Energy Correction : -0.836831E+00 eV

Dispersion corrected final energy* =  -3189.461883890     eV
 
 ************************************** Forces **************************************
 *                                                                                  *
 *                           Cartesian components (eV/A)                            *
 * -------------------------------------------------------------------------------- *
 *                         x                    y                    z              *
 *                                                                                  *
 * H               1      0.04780             -0.21169              0.35433         *
 * H               2      0.12245             -0.25065              0.35622         *
 * H               3      0.01112              0.06553             -0.03386         *
 * H               4      0.05256              0.05350             -0.02178         *
 * H               5     -0.53551             -0.29211             -0.10490         *
 * H               6     -0.04642              1.28794             -0.77599         *
 * H               7     -0.11589             -0.29065             -0.41080         *
 * H               8      0.12865             -0.43978              0.34338         *
 * H               9     -0.02817             -0.28554              0.04678         *
 * H              10      0.16836              0.21051             -0.08327         *
 * H              11     -1.17520             -3.52495              1.44402         *
 * H              12     -0.73020              1.91272              3.70367         *
 * H              13     -1.29780             -3.17611              2.80261         *
 * H              14      1.19260             -2.22665             -0.61703         *
 * H              15     -1.68086             -0.53187              0.62445         *
 * H              16     -0.32411             -0.14546              0.15044         *
 * H              17      0.19322             -0.29646             -0.06843         *
 * H              18      0.12632             -0.19473              0.32564         *
 * H              19     -0.15738              0.16261              0.02467         *
 * H              20      0.17781              0.07840             -0.10292         *
 * C               1     -0.17252             -2.66291              1.56649         *
 * C               2      0.17842              0.42893              0.16534         *
 * C               3      0.87585             -1.77079              1.62660         *
 * C               4      0.18122              0.65010             -0.46272         *
 * C               5     -1.06489             -1.86229              1.09942         *
 * C               6      0.19594              0.52093             -0.03965         *
 * C               7     -0.20251             -0.21639             -0.26062         *
 * N               1      0.29816              6.58181             -3.05006         *
 * O               1      2.44954             -2.40552             -1.99674         *
 * O               2     -0.77221              3.08533             -2.30841         *
 * O               3      1.51062              1.55365             -3.11039         *
 * Si              1      0.39302              4.19259             -1.18649         *
 *                                                                                  *
 ************************************************************************************
  
 +------------+-------------+-------------+-----------------+ <-- min LBFGS
 |    Step    |   lambda    |   F.delta'  |    enthalpy     | <-- min LBFGS
 +------------+-------------+-------------+-----------------+ <-- min LBFGS
 |  previous  |    0.000000 |    1.982062 |    -3191.505141 | <-- min LBFGS
 | trial step |    0.633541 |   -5.932816 |    -3189.461884 | <-- min LBFGS
 +------------+-------------+-------------+-----------------+ <-- min LBFGS
  

--------------------------------------------------------------------------------
 LBFGS: improving iteration         1 with line minimization (lambda=  0.158653)
--------------------------------------------------------------------------------
 
                           -------------------------------
                                     Cell Contents
                           -------------------------------
 
            xxxxxxxxxxxxxxxxxxxxxxxxxxxxxxxxxxxxxxxxxxxxxxxxxxxxxxxxxxxxxxxxx
            x  Element         Atom        Fractional coordinates of atoms  x
            x                 Number           u          v          w      x
            x---------------------------------------------------------------x
            x  H                 1         0.328227   0.447398   0.539130   x
            x  H                 2         0.437576   0.418258   0.520893   x
            x  H                 3         0.422190   0.546841   0.556754   x
            x  H                 4         0.530256   0.518683   0.538145   x
            x  H                 5         0.240303   0.452007   0.490607   x
            x  H                 6         0.288901   0.502622   0.462131   x
            x  H                 7         0.311596   0.397318   0.444222   x
            x  H                 8         0.348223   0.363286   0.478283   x
            x  H                 9         0.485455   0.369620   0.440632   x
            x  H                10         0.515986   0.409312   0.473972   x
            x  H                11         0.505939   0.593668   0.449344   x
            x  H                12         0.434297   0.479468   0.385554   x
            x  H                13         0.637308   0.521831   0.406435   x
            x  H                14         0.335445   0.544281   0.507806   x
            x  H                15         0.436536   0.517511   0.490576   x
            x  H                16         0.426428   0.446873   0.589513   x
            x  H                17         0.534554   0.419690   0.571034   x
            x  H                18         0.577865   0.476746   0.618445   x
            x  H                19         0.516097   0.548707   0.606335   x
            x  H                20         0.625006   0.521641   0.587719   x
            x  C                 1         0.398553   0.462449   0.528694   x
            x  C                 2         0.462583   0.502345   0.549786   x
            x  C                 3         0.308620   0.466412   0.479005   x
            x  C                 4         0.357110   0.406716   0.464101   x
            x  C                 5         0.467243   0.412793   0.454367   x
            x  C                 6         0.492983   0.463857   0.577601   x
            x  C                 7         0.556553   0.505044   0.598687   x
            x  N                 1         0.372122   0.501834   0.501374   x
            x  O                 1         0.421649   0.501289   0.404835   x
            x  O                 2         0.615581   0.487371   0.420533   x
            x  O                 3         0.485285   0.550233   0.456816   x
            x  Si                1         0.500150   0.487426   0.432461   x
            xxxxxxxxxxxxxxxxxxxxxxxxxxxxxxxxxxxxxxxxxxxxxxxxxxxxxxxxxxxxxxxxx
 
 
------------------------------------------------------------------------ <-- SCF
SCF loop      Energy                           Energy gain       Timer   <-- SCF
                                               per atom          (sec)   <-- SCF
------------------------------------------------------------------------ <-- SCF
Initial  -3.21143405E+003                                        109.78  <-- SCF
      1  -3.18969110E+003                   -6.79467403E-001     110.61  <-- SCF
      2  -3.19111975E+003                    4.46453342E-002     111.71  <-- SCF
      3  -3.19069513E+003                   -1.32692825E-002     112.71  <-- SCF
      4  -3.19078340E+003                    2.75830475E-003     113.78  <-- SCF
      5  -3.19081826E+003                    1.08964423E-003     114.81  <-- SCF
      6  -3.19081902E+003                    2.36049056E-005     115.88  <-- SCF
      7  -3.19081882E+003                   -6.20685714E-006     116.80  <-- SCF
      8  -3.19081862E+003                   -6.37995464E-006     117.60  <-- SCF
      9  -3.19081836E+003                   -8.11336194E-006     118.51  <-- SCF
     10  -3.19081848E+003                    3.82718378E-006     119.30  <-- SCF
     11  -3.19081887E+003                    1.20440539E-005     120.10  <-- SCF
     12  -3.19081936E+003                    1.54915917E-005     120.87  <-- SCF
     13  -3.19081976E+003                    1.24191396E-005     121.63  <-- SCF
     14  -3.19082022E+003                    1.43702111E-005     122.41  <-- SCF
     15  -3.19082059E+003                    1.15042634E-005     123.18  <-- SCF
     16  -3.19082087E+003                    8.93706389E-006     123.95  <-- SCF
     17  -3.19082121E+003                    1.06218593E-005     124.73  <-- SCF
     18  -3.19082138E+003                    5.28019415E-006     125.51  <-- SCF
     19  -3.19082162E+003                    7.58219951E-006     126.28  <-- SCF
     20  -3.19082180E+003                    5.56748198E-006     127.06  <-- SCF
     21  -3.19082195E+003                    4.70986965E-006     127.84  <-- SCF
     22  -3.19082209E+003                    4.34448284E-006     128.63  <-- SCF
     23  -3.19082217E+003                    2.52949092E-006     129.41  <-- SCF
     24  -3.19082224E+003                    2.00034839E-006     130.19  <-- SCF
     25  -3.19082228E+003                    1.40621558E-006     130.98  <-- SCF
     26  -3.19082230E+003                    5.66782649E-007     131.76  <-- SCF
------------------------------------------------------------------------ <-- SCF
 
Final energy =  -3190.822299970     eV
(energy not corrected for finite basis set)
 
(SEDC) Total Energy Correction : -0.834508E+00 eV

Dispersion corrected final energy* =  -3191.656807663     eV
 
 ************************************** Forces **************************************
 *                                                                                  *
 *                           Cartesian components (eV/A)                            *
 * -------------------------------------------------------------------------------- *
 *                         x                    y                    z              *
 *                                                                                  *
 * H               1      0.07863             -0.01627             -0.04160         *
 * H               2     -0.08490              0.11384              0.00932         *
 * H               3      0.00598              0.02673             -0.04904         *
 * H               4     -0.03715              0.00915             -0.03987         *
 * H               5      0.04727             -0.02024             -0.00047         *
 * H               6      0.04905              0.19860             -0.07854         *
 * H               7      0.01400              0.01789              0.06209         *
 * H               8      0.09542              0.00773              0.05856         *
 * H               9     -0.00658              0.08714              0.05736         *
 * H              10      0.05910              0.03867             -0.00871         *
 * H              11     -0.26783             -0.62859              0.34735         *
 * H              12     -0.16955              0.41616              0.80314         *
 * H              13     -0.34441             -0.74755              0.60699         *
 * H              14      0.25391             -0.32360             -0.07900         *
 * H              15     -0.12824              0.22109             -0.12249         *
 * H              16     -0.04340             -0.03654             -0.04332         *
 * H              17     -0.02218             -0.01458             -0.06559         *
 * H              18     -0.04325             -0.01184             -0.00406         *
 * H              19     -0.03790             -0.00305             -0.00626         *
 * H              20     -0.01742              0.02849             -0.00813         *
 * C               1     -0.06751             -0.03826              0.01097         *
 * C               2      0.05671              0.07152              0.06743         *
 * C               3     -0.11318             -0.09293             -0.15015         *
 * C               4      0.05759              0.01717             -0.04366         *
 * C               5     -0.06983              0.01751              0.19096         *
 * C               6      0.02591             -0.02549              0.09179         *
 * C               7     -0.00552              0.03713             -0.01843         *
 * N               1      0.10520             -0.24669              0.29638         *
 * O               1      0.21202             -0.44346             -0.40598         *
 * O               2      0.14726              0.40407             -0.39211         *
 * O               3      0.14934              0.17131             -0.56089         *
 * Si              1      0.10147              0.76488             -0.48407         *
 *                                                                                  *
 ************************************************************************************
  
 +------------+-------------+-------------+-----------------+ <-- min LBFGS
 |    Step    |   lambda    |   F.delta'  |    enthalpy     | <-- min LBFGS
 +------------+-------------+-------------+-----------------+ <-- min LBFGS
 |  previous  |    0.000000 |    1.982062 |    -3191.505141 | <-- min LBFGS
 | trial step |    0.633541 |   -5.932816 |    -3189.461884 | <-- min LBFGS
 |  line step |    0.158653 |   -0.493172 |    -3191.656808 | <-- min LBFGS
 +------------+-------------+-------------+-----------------+ <-- min LBFGS
  
 LBFGS: finished iteration     1 with enthalpy= -3.19165681E+003 eV
  
 +-----------+-----------------+-----------------+------------+-----+ <-- LBFGS
 | Parameter |      value      |    tolerance    |    units   | OK? | <-- LBFGS
 +-----------+-----------------+-----------------+------------+-----+ <-- LBFGS
 |  dE/ion   |   4.739572E-003 |   2.000000E-005 |         eV | No  | <-- LBFGS
 |  |F|max   |   1.022685E+000 |   5.000000E-002 |       eV/A | No  | <-- LBFGS
 |  |dR|max  |   6.625888E-002 |   2.000000E-003 |          A | No  | <-- LBFGS
 +-----------+-----------------+-----------------+------------+-----+ <-- LBFGS
  

================================================================================
 Starting LBFGS iteration          2 ...
================================================================================
  
 +------------+-------------+-------------+-----------------+ <-- min LBFGS
 |    Step    |   lambda    |   F.delta'  |    enthalpy     | <-- min LBFGS
 +------------+-------------+-------------+-----------------+ <-- min LBFGS
 |  previous  |    0.000000 |    0.731520 |    -3191.656808 | <-- min LBFGS
 +------------+-------------+-------------+-----------------+ <-- min LBFGS
  

--------------------------------------------------------------------------------
 LBFGS: starting iteration         2 with trial guess (lambda=  1.000000)
--------------------------------------------------------------------------------
 
                           -------------------------------
                                     Cell Contents
                           -------------------------------
 
            xxxxxxxxxxxxxxxxxxxxxxxxxxxxxxxxxxxxxxxxxxxxxxxxxxxxxxxxxxxxxxxxx
            x  Element         Atom        Fractional coordinates of atoms  x
            x                 Number           u          v          w      x
            x---------------------------------------------------------------x
            x  H                 1         0.330243   0.447771   0.538408   x
            x  H                 2         0.437353   0.420125   0.520455   x
            x  H                 3         0.421898   0.547354   0.555956   x
            x  H                 4         0.529235   0.519127   0.537375   x
            x  H                 5         0.244239   0.452396   0.490310   x
            x  H                 6         0.291985   0.503757   0.461752   x
            x  H                 7         0.315572   0.399969   0.445052   x
            x  H                 8         0.353104   0.365868   0.478761   x
            x  H                 9         0.488677   0.374420   0.441568   x
            x  H                10         0.519698   0.412627   0.474489   x
            x  H                11         0.500794   0.589366   0.450402   x
            x  H                12         0.427197   0.481097   0.388664   x
            x  H                13         0.635600   0.511014   0.408621   x
            x  H                14         0.338891   0.541619   0.508053   x
            x  H                15         0.439807   0.517696   0.489923   x
            x  H                16         0.424247   0.446959   0.588463   x
            x  H                17         0.531920   0.420187   0.569982   x
            x  H                18         0.573805   0.477700   0.617347   x
            x  H                19         0.512733   0.549377   0.605392   x
            x  H                20         0.621434   0.522722   0.586823   x
            x  C                 1         0.399321   0.463410   0.528234   x
            x  C                 2         0.462393   0.502914   0.549259   x
            x  C                 3         0.310108   0.466965   0.478203   x
            x  C                 4         0.361089   0.408720   0.464464   x
            x  C                 5         0.470552   0.416961   0.455213   x
            x  C                 6         0.490978   0.463901   0.576963   x
            x  C                 7         0.553459   0.506132   0.597778   x
            x  N                 1         0.374487   0.496552   0.502334   x
            x  O                 1         0.415380   0.500649   0.406280   x
            x  O                 2         0.617743   0.479756   0.421608   x
            x  O                 3         0.481961   0.547751   0.456751   x
            x  Si                1         0.500716   0.488667   0.430909   x
            xxxxxxxxxxxxxxxxxxxxxxxxxxxxxxxxxxxxxxxxxxxxxxxxxxxxxxxxxxxxxxxxx
 
 
------------------------------------------------------------------------ <-- SCF
SCF loop      Energy                           Energy gain       Timer   <-- SCF
                                               per atom          (sec)   <-- SCF
------------------------------------------------------------------------ <-- SCF
Initial  -3.21736018E+003                                        133.12  <-- SCF
      1  -3.18878741E+003                   -8.92899088E-001     133.98  <-- SCF
      2  -3.19002328E+003                    3.86211421E-002     135.17  <-- SCF
      3  -3.18974525E+003                   -8.68846231E-003     136.17  <-- SCF
      4  -3.18985664E+003                    3.48087031E-003     137.17  <-- SCF
      5  -3.18986656E+003                    3.10189295E-004     138.34  <-- SCF
      6  -3.18986627E+003                   -9.35225892E-006     139.33  <-- SCF
      7  -3.18986527E+003                   -3.11405585E-005     140.26  <-- SCF
      8  -3.18986380E+003                   -4.60038252E-005     141.20  <-- SCF
      9  -3.18986333E+003                   -1.44731197E-005     142.04  <-- SCF
     10  -3.18986329E+003                   -1.36844702E-006     142.87  <-- SCF
     11  -3.18986370E+003                    1.29109753E-005     143.70  <-- SCF
     12  -3.18986398E+003                    8.60462295E-006     144.46  <-- SCF
     13  -3.18986461E+003                    1.97096148E-005     145.23  <-- SCF
     14  -3.18986496E+003                    1.10128583E-005     146.00  <-- SCF
     15  -3.18986542E+003                    1.43210887E-005     146.77  <-- SCF
     16  -3.18986577E+003                    1.10425573E-005     147.54  <-- SCF
     17  -3.18986623E+003                    1.41964537E-005     148.32  <-- SCF
     18  -3.18986653E+003                    9.40942111E-006     149.13  <-- SCF
     19  -3.18986673E+003                    6.17377511E-006     149.91  <-- SCF
     20  -3.18986693E+003                    6.23007294E-006     150.69  <-- SCF
     21  -3.18986703E+003                    3.13715102E-006     151.47  <-- SCF
     22  -3.18986709E+003                    2.13827081E-006     152.25  <-- SCF
[...]
 * C               1     -0.00127              0.00579             -0.00700         *
 * C               2      0.00449              0.00207              0.00957         *
 * C               3     -0.01464             -0.00548             -0.01412         *
 * C               4     -0.00208              0.00945              0.00139         *
 * C               5      0.00510             -0.00503             -0.00695         *
 * C               6     -0.00406              0.00423             -0.00618         *
 * C               7     -0.00115              0.00083             -0.00245         *
 * N               1      0.01034              0.01175              0.01873         *
 * O               1     -0.00481             -0.00291             -0.00888         *
 * O               2      0.00628             -0.00114              0.00424         *
 * O               3     -0.00490              0.00587              0.00080         *
 * Si              1     -0.00151             -0.00383              0.00700         *
 *                                                                                  *
 ************************************************************************************
 
 Pseudo atomic calculation performed for H 1s1
 
 Converged in 13 iterations to a total energy of -12.4790 eV
 
 Pseudo atomic calculation performed for C 2s2 2p2
 
 Converged in 17 iterations to a total energy of -148.5208 eV
 
 Pseudo atomic calculation performed for N 2s2 2p3
 
 Converged in 21 iterations to a total energy of -268.1820 eV
 
 Pseudo atomic calculation performed for O 2s2 2p4
 
 Converged in 23 iterations to a total energy of -432.6536 eV
 
 Pseudo atomic calculation performed for Si 3s2 3p2
 
 Converged in 11 iterations to a total energy of -165.0683 eV
Charge spilling parameter for spin component 1 = 1.51%
 
            Orbital Populations       
     Ion    Atom   Orbital             Charge
  -------------------------------------------
      H     1      S                    0.697
      H     2      S                    0.712
      H     3      S                    0.737
      H     4      S                    0.730
      H     5      S                    0.685
      H     6      S                    0.690
      H     7      S                    0.683
      H     8      S                    0.713
      H     9      S                    0.680
      H    10      S                    0.745
      H    11      S                    0.460
      H    12      S                    0.451
      H    13      S                    0.457
      H    14      S                    0.514
      H    15      S                    0.563
      H    16      S                    0.727
      H    17      S                    0.730
      H    18      S                    0.700
      H    19      S                    0.727
      H    20      S                    0.735
      C     1      S                    1.287
      C     1      Px                   1.167
      C     1      Py                   1.050
      C     1      Pz                   0.883
      C     2      S                    1.297
      C     2      Px                   1.127
      C     2      Py                   1.081
      C     2      Pz                   1.012
      C     3      S                    1.301
      C     3      Px                   1.060
      C     3      Py                   1.041
      C     3      Pz                   1.020
      C     4      S                    1.303
      C     4      Px                   1.006
      C     4      Py                   1.048
      C     4      Pz                   1.182
      C     5      S                    1.401
      C     5      Px                   1.049
      C     5      Py                   1.300
      C     5      Pz                   1.226
      C     6      S                    1.304
      C     6      Px                   1.150
      C     6      Py                   1.085
      C     6      Pz                   0.971
      C     7      S                    1.399
      C     7      Px                   1.136
      C     7      Py                   1.138
      C     7      Pz                   1.120
      N     1      S                    1.574
      N     1      Px                   1.389
      N     1      Py                   1.356
      N     1      Pz                   1.282
      O     1      S                    1.854
      O     1      Px                   1.812
      O     1      Py                   1.865
      O     1      Pz                   1.568
      O     2      S                    1.853
      O     2      Px                   1.702
      O     2      Py                   1.783
      O     2      Pz                   1.747
      O     3      S                    1.850
      O     3      Px                   1.913
      O     3      Py                   1.521
      O     3      Pz                   1.798
     Si     1      S                    0.734
     Si     1      Px                   0.339
     Si     1      Py                   0.420
     Si     1      Pz                   0.361
  -------------------------------------------
                           Total:      74.000
  -------------------------------------------
 
     Atomic Populations (Mulliken)
     -----------------------------
Species          Ion     s       p       d       f      Total   Charge (e)
==========================================================================
  H               1     0.697   0.000   0.000   0.000   0.697     0.303
  H               2     0.712   0.000   0.000   0.000   0.712     0.288
  H               3     0.737   0.000   0.000   0.000   0.737     0.263
  H               4     0.730   0.000   0.000   0.000   0.730     0.270
  H               5     0.685   0.000   0.000   0.000   0.685     0.315
  H               6     0.690   0.000   0.000   0.000   0.690     0.310
  H               7     0.683   0.000   0.000   0.000   0.683     0.317
  H               8     0.713   0.000   0.000   0.000   0.713     0.287
  H               9     0.680   0.000   0.000   0.000   0.680     0.320
  H              10     0.745   0.000   0.000   0.000   0.745     0.255
  H              11     0.460   0.000   0.000   0.000   0.460     0.540
  H              12     0.451   0.000   0.000   0.000   0.451     0.549
  H              13     0.457   0.000   0.000   0.000   0.457     0.543
  H              14     0.514   0.000   0.000   0.000   0.514     0.486
  H              15     0.563   0.000   0.000   0.000   0.563     0.437
  H              16     0.727   0.000   0.000   0.000   0.727     0.273
  H              17     0.730   0.000   0.000   0.000   0.730     0.270
  H              18     0.700   0.000   0.000   0.000   0.700     0.300
  H              19     0.727   0.000   0.000   0.000   0.727     0.273
  H              20     0.735   0.000   0.000   0.000   0.735     0.265
  C               1     1.287   3.100   0.000   0.000   4.387    -0.387
  C               2     1.297   3.220   0.000   0.000   4.517    -0.517
  C               3     1.301   3.121   0.000   0.000   4.421    -0.421
  C               4     1.303   3.236   0.000   0.000   4.539    -0.539
  C               5     1.401   3.575   0.000   0.000   4.976    -0.976
  C               6     1.304   3.206   0.000   0.000   4.510    -0.510
  C               7     1.399   3.393   0.000   0.000   4.793    -0.793
  N               1     1.574   4.027   0.000   0.000   5.601    -0.601
  O               1     1.854   5.244   0.000   0.000   7.098    -1.098
  O               2     1.853   5.232   0.000   0.000   7.085    -1.085
  O               3     1.850   5.232   0.000   0.000   7.082    -1.082
  Si              1     0.734   1.120   0.000   0.000   1.854     2.146
==========================================================================
 
                 Bond                   Population      Length (A)
======================================================================
              H 13 -- O 2                    0.53        0.96853
              H 12 -- O 1                    0.53        0.96973
              H 11 -- O 3                    0.52        0.97143
              H 14 -- N 1                    0.68        1.02753
              H 15 -- N 1                    0.65        1.05298
              H 2  -- C 1                    0.88        1.09641
              H 5  -- C 3                    0.85        1.09776
              H 18 -- C 7                    0.81        1.09822
              H 1  -- C 1                    0.86        1.09859
              H 7  -- C 4                    0.84        1.09921
              H 9  -- C 5                    0.82        1.09927
              H 6  -- C 3                    0.85        1.09944
              H 19 -- C 7                    0.81        1.09948
              H 8  -- C 4                    0.85        1.09959
              H 20 -- C 7                    0.81        1.09993
              H 17 -- C 6                    0.84        1.10202
              H 16 -- C 6                    0.84        1.10216
              H 4  -- C 2                    0.84        1.10382
              H 3  -- C 2                    0.85        1.10441
              H 10 -- C 5                    0.82        1.10449
               C 1 -- N 1                    0.52        1.50304
               C 3 -- N 1                    0.51        1.50832
               C 1 -- C 2                    0.71        1.52040
               C 3 -- C 4                    0.69        1.52561
               C 6 -- C 7                    0.65        1.52794
               C 2 -- C 6                    0.69        1.53394
               C 4 -- C 5                    0.65        1.54124
               O 2 -- Si 1                   0.53        1.63128
               O 1 -- Si 1                   0.50        1.64485
              H 14 -- H 15                  -0.11        1.65147
               O 3 -- Si 1                   0.44        1.68274
              H 15 -- O 3                    0.10        1.74593
              H 9  -- H 10                  -0.10        1.74602
              H 7  -- H 8                   -0.11        1.75846
              H 16 -- H 17                  -0.12        1.76369
              H 3  -- H 4                   -0.12        1.77486
              H 18 -- H 19                  -0.10        1.77508
              H 18 -- H 20                  -0.10        1.77695
              H 19 -- H 20                  -0.11        1.77779
              H 1  -- H 2                   -0.11        1.77978
              H 5  -- H 6                   -0.11        1.78828
               C 5 -- Si 1                   0.63        1.86888
              H 14 -- C 1                   -0.13        2.06367
              H 14 -- C 3                   -0.13        2.07480
              H 15 -- C 3                   -0.12        2.07738
              H 6  -- N 1                   -0.12        2.09539
              H 1  -- N 1                   -0.11        2.10087
              H 2  -- N 1                   -0.11        2.10213
              H 7  -- C 3                   -0.13        2.10450
              H 5  -- N 1                   -0.11        2.11192
              H 15 -- C 1                   -0.11        2.13596
              H 16 -- C 2                   -0.13        2.15855
              H 9  -- C 4                   -0.11        2.16001
              H 3  -- C 6                   -0.12        2.16101
              H 4  -- C 1                   -0.14        2.16140
              H 8  -- C 3                   -0.14        2.16227
              H 3  -- C 1                   -0.13        2.16287
              H 17 -- C 2                   -0.13        2.16526
              H 16 -- C 7                   -0.13        2.16771
              H 17 -- C 7                   -0.13        2.16817
              H 7  -- C 5                   -0.12        2.17326
              H 8  -- C 5                   -0.14        2.17329
              H 6  -- C 4                   -0.12        2.17417
              H 4  -- C 6                   -0.12        2.17499
              H 1  -- C 2                   -0.12        2.17717
              H 2  -- C 2                   -0.12        2.17869
              H 18 -- C 6                   -0.12        2.17874
              H 5  -- C 4                   -0.13        2.17892
              H 19 -- C 6                   -0.12        2.17968
              H 20 -- C 6                   -0.12        2.18022
              H 10 -- C 4                   -0.11        2.19300
              H 2  -- H 10                  -0.03        2.23231
              H 12 -- Si 1                  -0.12        2.28833
              H 13 -- Si 1                  -0.14        2.30402
              H 6  -- H 15                  -0.03        2.31311
              H 11 -- Si 1                  -0.12        2.31440
              H 2  -- H 8                   -0.03        2.33528
              H 6  -- H 14                  -0.03        2.35841
              H 5  -- H 14                  -0.03        2.36261
              H 6  -- H 7                   -0.05        2.38609
              H 1  -- H 14                  -0.03        2.39993
              H 7  -- H 9                   -0.04        2.42164
              H 5  -- H 8                   -0.04        2.42252
              H 10 -- Si 1                  -0.13        2.42322
              H 11 -- H 15                  -0.02        2.42424
              H 3  -- H 14                  -0.01        2.44188
              H 9  -- Si 1                  -0.12        2.44741
              H 8  -- H 10                  -0.05        2.45113
              H 2  -- H 15                  -0.03        2.46205
               C 2 -- N 1                   -0.13        2.49932
              H 3  -- H 16                  -0.03        2.50624
              H 17 -- H 18                  -0.03        2.50894
              H 16 -- H 18                  -0.03        2.50943
              H 2  -- H 4                   -0.04        2.50959
              H 1  -- H 16                  -0.01        2.51055
              H 10 -- H 15                  -0.01        2.51069
               C 1 -- C 6                   -0.15        2.51733
              H 5  -- H 7                   -0.02        2.51907
               C 4 -- N 1                   -0.13        2.52267
              H 4  -- H 17                  -0.03        2.52350
              H 16 -- H 19                  -0.03        2.52909
              H 17 -- H 20                  -0.03        2.53241
              H 8  -- H 9                   -0.02        2.53568
              H 1  -- H 3                   -0.03        2.53813
               C 2 -- C 7                   -0.15        2.54157
              H 1  -- H 5                   -0.01        2.54300
               C 1 -- C 3                   -0.13        2.55176
              H 3  -- H 19                  -0.01        2.56816
              H 4  -- H 15                  -0.01        2.57508
              H 2  -- H 17                  -0.01        2.59175
               C 3 -- C 5                   -0.14        2.59506
              H 4  -- H 20                  -0.01        2.60298
               O 1 -- O 3                   -0.08        2.61625
              H 14 -- C 2                   -0.04        2.65731
              H 2  -- C 4                   -0.03        2.67951
              H 15 -- C 5                   -0.02        2.69022
              H 6  -- O 1                   -0.00        2.71125
              H 3  -- N 1                   -0.03        2.72280
              H 16 -- C 1                   -0.04        2.72389
              H 1  -- C 3                   -0.03        2.73481
               N 1 -- O 3                   -0.11        2.73984
              H 17 -- C 1                   -0.04        2.74541
              H 15 -- C 2                   -0.03        2.75078
              H 3  -- C 7                   -0.04        2.75903
              H 4  -- N 1                   -0.02        2.76160
              H 1  -- C 6                   -0.04        2.76435
               O 1 -- O 2                   -0.07        2.76555
               C 5 -- O 3                   -0.11        2.76572
              H 2  -- C 3                   -0.02        2.76767
              H 15 -- Si 1                  -0.04        2.76896
              H 15 -- C 4                   -0.02        2.77227
               O 2 -- O 3                   -0.06        2.77984
              H 4  -- C 7                   -0.03        2.78767
              H 19 -- C 2                   -0.04        2.80543
              H 10 -- O 3                   -0.01        2.80594
              H 20 -- C 2                   -0.04        2.80863
              H 5  -- C 1                   -0.03        2.80954
               C 5 -- O 2                   -0.10        2.81245
              H 2  -- C 6                   -0.03        2.81510
              H 11 -- O 1                   -0.01        2.82220
              H 9  -- O 2                   -0.01        2.86450
              H 10 -- N 1                   -0.01        2.88140
              H 2  -- C 5                   -0.02        2.88153
              H 8  -- C 1                   -0.02        2.90208
              H 8  -- N 1                   -0.01        2.90960
               C 4 -- Si 1                  -0.13        2.91595
              H 6  -- O 3                   -0.00        2.91743
              H 2  -- H 14                   0.04        2.94464
              H 6  -- C 5                   -0.02        2.94581
               C 5 -- O 1                   -0.09        2.95787
              H 12 -- O 2                   -0.01        2.95951
              H 5  -- H 15                   0.03        2.96287
              H 1  -- H 8                   -0.00        2.97310
              H 10 -- C 1                   -0.02        2.99107
               C 5 -- N 1                   -0.03        2.99331
              H 6  -- Si 1                  -0.02        2.99945
======================================================================
 
 
     Hirshfeld Analysis
     ------------------
Species   Ion     Hirshfeld Charge (e)
======================================
  H        1                 0.06
  H        2                 0.06
  H        3                 0.05
  H        4                 0.05
  H        5                 0.07
  H        6                 0.06
  H        7                 0.06
  H        8                 0.05
  H        9                 0.06
  H       10                 0.04
  H       11                 0.18
  H       12                 0.18
  H       13                 0.18
  H       14                 0.17
  H       15                 0.12
  H       16                 0.04
  H       17                 0.04
  H       18                 0.05
  H       19                 0.05
  H       20                 0.04
  C        1                 0.01
  C        2                -0.06
  C        3                 0.01
  C        4                -0.05
  C        5                -0.15
  C        6                -0.05
  C        7                -0.10
  N        1                 0.02
  O        1                -0.28
  O        2                -0.27
  O        3                -0.25
  Si       1                 0.48
======================================
 

Writing analysis data to Conf_0020.castep_bin

Writing model to Conf_0020.check
 
 A BibTeX formatted list of references used in this run has been written to 
 Conf_0020.bib
 
Initialisation time =     24.40 s
Calculation time    =    892.35 s
Finalisation time   =      1.09 s
Total time          =    917.85 s
Peak Memory Use     = 7917952 kB
 
Overall parallel efficiency rating: Satisfactory (66%)
 
Data was distributed by:-
G-vector (48-way); efficiency rating: Satisfactory (66%)
High Water Mark     = 1897240 kB
