 Job started on host drago31060178.mgmt.cc.csic.es
 at Sun Mar 31 00:50:16 2024

 +-------------------------------------------------+
 |                                                 |
 |      CCC   AA    SSS  TTTTT  EEEEE  PPPP        |
 |     C     A  A  S       T    E      P   P       |
 |     C     AAAA   SS     T    EEE    PPPP        |
 |     C     A  A     S    T    E      P           |
 |      CCC  A  A  SSS     T    EEEEE  P           |
 |                                                 |
 +-------------------------------------------------+
 |                                                 |
 | Materials Studio CASTEP version 2024            |
 | Ab Initio Total Energy Program                  |
 |                                                 |
 | Authors:                                        |
 | M. Segall, M. Probert, C. Pickard, P. Hasnip,   |
 | S. Clark, K. Refson, J. R. Yates,               |
 | A. Bartok-Partay, M. Payne                      |
 |                                                 |
 | Contributors:                                   |
 | P. Lindan, P. Haynes, J. White, V. Milman,      |
 | N. Govind, M. Gibson, P. Tulip, V. Cocula,      |
 | B. Montanari, D. Quigley, M. Glover,            |
 | L. Bernasconi, A. Perlov, M. Plummer,           |
 | E. McNellis, J. Meyer, J. Gale, D. Jochym       |
 | J. Aarons, B. Walker, R. Gillen, D. Jones       |
 | T. Green, I. J. Bush, C. J. Armstrong,          |
 | E. J. Higgins, E. L. Brown, M. S. McFly,        |
 | J. Wilkins, B-C. Shih, P. J. P. Byrne,          |
 | R. J. Maurer, J. C. Womack, J. Dziedzic,        |
 | L. LeBlanc, T. K. Stenczel, J. Kermode,         |
 | S. Sturniolo, B. Shi, B. Durham, M. Evans,      |
 | M. J. Smith, A. Tamerus, Z. Hawkhead,           |
 | V. Ravindran, T. Hollins, S. A. Joyce,          |
 | R. T. Strong, A. M. Reilly                      |
 |                                                 |
 | Copyright (c) 2000 - 2023                       |
 |                                                 |
 | Please cite                                     |
 |                                                 |
 |     "First principles methods using CASTEP"     |
 |                                                 |
 |         Zeitschrift fuer Kristallographie       |
 |           220(5-6) pp. 567-570 (2005)           |
 |                                                 |
 | S. J. Clark, M. D. Segall, C. J. Pickard,       |
 | P. J. Hasnip, M. J. Probert, K. Refson,         |
 | M. C. Payne                                     |
 |                                                 |
 |       in all publications arising from          |
 |              your use of CASTEP                 |
 |                                                 |
 +-------------------------------------------------+
 |                                                 |
 |              http://www.castep.org              |
 |                                                 |
 +-------------------------------------------------+
 
 
 This version was compiled for x86_64-rhel7-intel19.0 on Oct 24 2023
 Code version:    a9f326b
 Intel(R) Math Kernel Library Version 2019.0.4 
 Fundamental constants values: CODATA 2018
 
License checkout of MS_castep successful
 
 
 Atomic calculation performed for H: 1s1
 
 Converged in 41 iterations to an ae energy of -12.488 eV
 
 Identity difference: 2.63E-05
 
   ============================================================                
   | Pseudopotential Report - Date of generation 31-03-2024   |                
   ------------------------------------------------------------                
   | Element: H Ionic charge:  1.00 Level of theory: PBE      |                
   | Atomic Solver: Koelling-Harmon                           |                
   |                                                          |                
   |               Reference Electronic Structure             |                
   |         Orbital         Occupation         Energy        |                
   |            1s              1.000           -0.239        |                
   |                                                          |                
   |                 Pseudopotential Definition               |                
   |        Beta     l      e      Rc     scheme   norm       |                
   |          1      0   -0.239   0.599     qc      0         |                
   |          2      0    0.250   0.599     qc      0         |                
   |         loc     1    0.000   0.599     pn      0         |                
   |                                                          |                
   | Augmentation charge Rinner = 0.421                       |                
   | No partial core correction                               |                
   ------------------------------------------------------------                
   | "1|0.6|9|10|15|10UU(qc=8)[]"                             |                
   ------------------------------------------------------------                
   |      Author: Chris J. Pickard, Cambridge University      |                
   ============================================================                
 
 Doing a self consistent calculation for the test configuration
 
 Atomic calculation performed for H: 1s1
 
 Converged in 41 iterations to an ae energy of -12.488 eV
 
 ---------------------------------------
 AE eigenvalue nl 10 =       -0.23860176
 ---------------------------------------
 PS eigenvalue nl 10 =       -0.23857601
 ---------------------------------------
 Maximum eigenvalue error:   2.57E-05
 
 Derived cutoff energies: C=   1 M=   6 F=  10 E=  20
 
 Checking for ghost states up to   1.51185 Ha
 
 No Ghost States Identified
 
 ***************************************
 
 Atomic calculation performed for C: 1s2 2s2 2p2
 
 Converged in 54 iterations to an ae energy of -1027.632 eV
 
 Identity difference: 2.37E-04
 
   ============================================================                
   | Pseudopotential Report - Date of generation 31-03-2024   |                
   ------------------------------------------------------------                
   | Element: C Ionic charge:  4.00 Level of theory: PBE      |                
   | Atomic Solver: Koelling-Harmon                           |                
   |                                                          |                
   |               Reference Electronic Structure             |                
   |         Orbital         Occupation         Energy        |                
   |            2s              2.000           -0.505        |                
   |            2p              2.000           -0.194        |                
   |                                                          |                
   |                 Pseudopotential Definition               |                
   |        Beta     l      e      Rc     scheme   norm       |                
   |          1      0   -0.505   1.395     qc      0         |                
   |          2      0    0.250   1.395     qc      0         |                
   |          3      1   -0.194   1.395     qc      0         |                
   |          4      1    0.250   1.395     qc      0         |                
   |         loc     2    0.000   1.395     pn      0         |                
   |                                                          |                
   | Augmentation charge Rinner = 0.983                       |                
   | Partial core correction Rc = 0.983                       |                
   ------------------------------------------------------------                
   | "2|1.4|11|12|14.7|20UU:21UU(qc=7)[]"                     |                
   ------------------------------------------------------------                
   |      Author: Chris J. Pickard, Cambridge University      |                
   ============================================================                
 
 Doing a self consistent calculation for the test configuration
 
 Atomic calculation performed for C: 1s2 2s2 2p2
 
 Converged in 54 iterations to an ae energy of -1027.632 eV
 
 ---------------------------------------
 AE eigenvalue nl 10 =      -10.04653081
 AE eigenvalue nl 20 =       -0.50533429
 AE eigenvalue nl 21 =       -0.19423807
 ---------------------------------------
 PS eigenvalue nl 20 =       -0.50531853
 PS eigenvalue nl 21 =       -0.19422214
 ---------------------------------------
 Maximum eigenvalue error:   1.59E-05
 
 Derived cutoff energies: C=   6 M=  10 F=  12 E=  16
 
 Checking for ghost states up to   1.47183 Ha
 
 No Ghost States Identified
 
 ***************************************
 
 Atomic calculation performed for N: 1s2 2s2 2p3
 
 Converged in 55 iterations to an ae energy of -1481.742 eV
 
 Identity difference: 2.27E-04
 
   ============================================================                
   | Pseudopotential Report - Date of generation 31-03-2024   |                
   ------------------------------------------------------------                
   | Element: N Ionic charge:  5.00 Level of theory: PBE      |                
   | Atomic Solver: Koelling-Harmon                           |                
   |                                                          |                
   |               Reference Electronic Structure             |                
   |         Orbital         Occupation         Energy        |                
   |            2s              2.000           -0.683        |                
   |            2p              3.000           -0.261        |                
   |                                                          |                
   |                 Pseudopotential Definition               |                
   |        Beta     l      e      Rc     scheme   norm       |                
   |          1      0   -0.683   1.100     qc      0         |                
   |          2      0    0.250   1.100     qc      0         |                
   |          3      1   -0.261   1.100     qc      0         |                
   |          4      1    0.250   1.100     qc      0         |                
   |         loc     2    0.000   1.100     pn      0         |                
   |                                                          |                
   | Augmentation charge Rinner = 0.769                       |                
   | Partial core correction Rc = 0.769                       |                
   ------------------------------------------------------------                
   | "2|1.1|12|16|19|20UU:21UU(qc=7)[]"                       |                
   ------------------------------------------------------------                
   |      Author: Chris J. Pickard, Cambridge University      |                
   ============================================================                
 
 Doing a self consistent calculation for the test configuration
 
 Atomic calculation performed for N: 1s2 2s2 2p3
 
 Converged in 55 iterations to an ae energy of -1481.742 eV
 
 ---------------------------------------
 AE eigenvalue nl 10 =      -14.13820921
 AE eigenvalue nl 20 =       -0.68290611
 AE eigenvalue nl 21 =       -0.26054797
 ---------------------------------------
 PS eigenvalue nl 20 =       -0.68291221
 PS eigenvalue nl 21 =       -0.26051708
 ---------------------------------------
 Maximum eigenvalue error:   3.09E-05
 
 Derived cutoff energies: C=  10 M=  15 F=  18 E=  23
 
 Checking for ghost states up to   1.48495 Ha
 
 No Ghost States Identified
 
 ***************************************
 
 Atomic calculation performed for O: 1s2 2s2 2p4
 
 Converged in 61 iterations to an ae energy of -2040.902 eV
 
 Identity difference: 4.10E-04
 
   ============================================================                
   | Pseudopotential Report - Date of generation 31-03-2024   |                
   ------------------------------------------------------------                
   | Element: O Ionic charge:  6.00 Level of theory: PBE      |                
   | Atomic Solver: Koelling-Harmon                           |                
   |                                                          |                
   |               Reference Electronic Structure             |                
   |         Orbital         Occupation         Energy        |                
   |            2s              2.000           -0.881        |                
   |            2p              4.000           -0.332        |                
   |                                                          |                
   |                 Pseudopotential Definition               |                
   |        Beta     l      e      Rc     scheme   norm       |                
   |          1      0   -0.881   1.100     qc      0         |                
   |          2      0    0.250   1.100     qc      0         |                
   |          3      1   -0.332   1.100     qc      0         |                
   |          4      1    0.250   1.100     qc      0         |                
   |         loc     2    0.000   1.100     pn      0         |                
   |                                                          |                
   | Augmentation charge Rinner = 0.769                       |                
   | Partial core correction Rc = 0.769                       |                
   ------------------------------------------------------------                
   | "2|1.1|14|18|21|20UU:21UU(qc=7)[]"                       |                
   ------------------------------------------------------------                
   |      Author: Chris J. Pickard, Cambridge University      |                
   ============================================================                
 
 Doing a self consistent calculation for the test configuration
 
 Atomic calculation performed for O: 1s2 2s2 2p4
 
 Converged in 61 iterations to an ae energy of -2040.902 eV
 
 ---------------------------------------
 AE eigenvalue nl 10 =      -18.91475256
 AE eigenvalue nl 20 =       -0.88057101
 AE eigenvalue nl 21 =       -0.33186952
 ---------------------------------------
 PS eigenvalue nl 20 =       -0.88059206
 PS eigenvalue nl 21 =       -0.33182157
 ---------------------------------------
 Maximum eigenvalue error:   4.80E-05
 
 Derived cutoff energies: C=  14 M=  17 F=  20 E=  22
 
 Checking for ghost states up to   1.49452 Ha
 
 No Ghost States Identified
 
 ***************************************
 
 Atomic calculation performed for Si: 1s2 2s2 2p6 3s2 3p2
 
 Converged in 54 iterations to an ae energy of -7886.857 eV
 
 Identity difference: 1.35E-04
 
   ============================================================                
   | Pseudopotential Report - Date of generation 31-03-2024   |                
   ------------------------------------------------------------                
   | Element: Si Ionic charge:  4.00 Level of theory: PBE     |                
   | Atomic Solver: Koelling-Harmon                           |                
   |                                                          |                
   |               Reference Electronic Structure             |                
   |         Orbital         Occupation         Energy        |                
   |            3s              2.000           -0.397        |                
   |            3p              2.000           -0.150        |                
   |                                                          |                
   |                 Pseudopotential Definition               |                
   |        Beta     l      e      Rc     scheme   norm       |                
   |          1      0   -0.397   1.797     qc      0         |                
   |          2      0    0.250   1.797     qc      0         |                
   |          3      1   -0.150   1.797     qc      0         |                
   |          4      1    0.250   1.797     qc      0         |                
   |          5      2    0.000   1.797     qc      0         |                
   |          6      2    0.250   1.797     qc      0         |                
   |         loc     3    0.000   1.797     pn      0         |                
   |                                                          |                
   | Augmentation charge Rinner = 1.255                       |                
   | Partial core correction Rc = 1.255                       |                
   ------------------------------------------------------------                
   | "3|1.8|3.6|5|7|30UU:31UU:32UU[]"                         |                
   ------------------------------------------------------------                
   |      Author: Chris J. Pickard, Cambridge University      |                
   ============================================================                
 
 Doing a self consistent calculation for the test configuration
 
 Atomic calculation performed for Si: 1s2 2s2 2p6 3s2 3p2
 
 Converged in 54 iterations to an ae energy of -7886.857 eV
 
 ---------------------------------------
 AE eigenvalue nl 10 =      -65.63192903
 AE eigenvalue nl 20 =       -5.12654326
 AE eigenvalue nl 21 =       -3.51173659
 AE eigenvalue nl 30 =       -0.39736430
 AE eigenvalue nl 31 =       -0.14998156
 ---------------------------------------
 PS eigenvalue nl 30 =       -0.39734922
 PS eigenvalue nl 31 =       -0.14996719
 ---------------------------------------
 Maximum eigenvalue error:   1.51E-05
 
 Derived cutoff energies: C=   1 M=   3 F=   6 E=   6
 
 Checking for ghost states up to   1.41161 Ha
 
 No Ghost States Identified
 
 ***************************************
 
 Pseudo atomic calculation performed for H 1s1
 
 Converged in 13 iterations to a total energy of -12.4790 eV
 
 Pseudo atomic calculation performed for C 2s2 2p2
 
 Converged in 17 iterations to a total energy of -148.5208 eV
 
 Pseudo atomic calculation performed for N 2s2 2p3
 
 Converged in 21 iterations to a total energy of -268.1820 eV
 
 Pseudo atomic calculation performed for O 2s2 2p4
 
 Converged in 23 iterations to a total energy of -432.6536 eV
 
 Pseudo atomic calculation performed for Si 3s2 3p2
 
 Converged in 11 iterations to a total energy of -165.0683 eV
 Calculation parallelised over 48 processes.
 Data is distributed by G-vector(48-way)

 ************************************ Title ************************************
 CASTEP calculation from BIOVIA Materials Studio 2024

 ***************************** General Parameters ******************************
  
 output verbosity                               : normal  (1)
 write checkpoint data to                       : Conf_0006.check
 type of calculation                            : geometry optimization
 stress calculation                             : off
 density difference calculation                 : off
 electron localisation func (ELF) calculation   : off
 Hirshfeld analysis                             : on
 polarisation (Berry phase) analysis            : off
 molecular orbital projected DOS                : off
 deltaSCF calculation                           : off
 unlimited duration calculation
 timing information                             : on
 memory usage estimate                          : on
 write extra output files                       : on
 write final potential to formatted file        : off
 write final density to formatted file          : off
 write BibTeX reference list                    : on
 write OTFG pseudopotential files               : on
 write electrostatic potential file             : on
 write bands file                               : on
 checkpoint writing                             : both castep_bin and check files
  
 output         length unit                     : A
 output           mass unit                     : amu
 output           time unit                     : ps
 output         charge unit                     : e
 output           spin unit                     : hbar/2
 output         energy unit                     : eV
 output          force unit                     : eV/A
 output       velocity unit                     : A/ps
 output       pressure unit                     : GPa
 output     inv_length unit                     : 1/A
 output      frequency unit                     : cm-1
 output force constant unit                     : eV/A**2
 output         volume unit                     : A**3
 output   IR intensity unit                     : (D/A)**2/amu
 output         dipole unit                     : D
 output         efield unit                     : eV/A/e
 output        entropy unit                     : J/mol/K
 output    efield chi2 unit                     : pm/V
  
 wavefunctions paging                           : none
 random number generator seed                   :    5024861
 data distribution                              : optimal for this architecture
 optimization strategy                          : balance speed and memory

 *********************** Exchange-Correlation Parameters ***********************
  
 using functional                               : Perdew Burke Ernzerhof
 relativistic treatment                         : Koelling-Harmon
 DFT+D: Semi-empirical dispersion correction    : on
 SEDC with                                      : G06 correction scheme

 ************************* Pseudopotential Parameters **************************
  
 pseudopotential representation                 : reciprocal space
 <beta|phi> representation                      : reciprocal space
 spin-orbit coupling                            : off

 **************************** Basis Set Parameters *****************************
  
 plane wave basis set cut-off                   :   600.0000   eV
 size of standard grid                          :     1.5000
 size of   fine   gmax                          :    18.8237   1/A
 largest prime factor in FFT                    :          5
 finite basis set correction                    : none

 **************************** Electronic Parameters ****************************
  
 number of  electrons                           :  74.00    
 net charge of system                           : +1.000    
 treating system as non-spin-polarized
 number of bands                                :         37

 ********************* Electronic Minimization Parameters **********************
  
 Method: Treating system as non-metallic,
         and number of  SD  steps               :          1
         and number of  CG  steps               :          4
  
 total energy / atom convergence tol.           : 0.2000E-05   eV
 eigen-energy convergence tolerance             : 0.1000E-05   eV
 max force / atom convergence tol.              : ignored
 convergence tolerance window                   :          3   cycles
 max. number of SCF cycles                      :        100
 periodic dipole correction                     : NONE

 ************************** Density Mixing Parameters **************************
  
 density-mixing scheme                          : Pulay
 max. length of mixing history                  :         20
 charge density mixing amplitude                : 0.5000    
 cut-off energy for mixing                      :  600.0       eV
 charge density mixing g-vector                 :  1.500       1/A

 *********************** Population Analysis Parameters ************************
  
 Population analysis with cutoff                :  3.000       A
 Population analysis output                     : summary and pdos components

 ********************** Geometry Optimization Parameters ***********************
  
 optimization method                            : LBFGS
 max. no. of LBFGS updates                      : unbounded
 preconditioned LBFGS is activated
 preconditioner type                            : EXP
     stabilization constant                     :     0.1000
     parameter A                                :     3.0000
     nearest neighbor distance                  : automatic
     cut-off distance                           : automatic
     parameter mu                               : automatic
 variable cell method                           : fixed basis quality
 max. number of steps                           :        300
 estimated bulk modulus                         :  500.0       GPa
 estimated <frequency>                          :  1668.       cm-1
 geom line minimiser                            : on
 with line minimiser tolerance                  :     0.4000
 total energy convergence tolerance             : 0.2000E-04   eV/atom
        max ionic |force| tolerance             : 0.5000E-01   eV/A
 max ionic |displacement| tolerance             : 0.2000E-02   A
   max |stress component| tolerance             : 0.1000       GPa
 convergence tolerance window                   :          2   steps
 backup results every                           :          5   steps
 write geom trajectory file                     : on

 *******************************************************************************
  
 
                           -------------------------------
                                      Unit Cell
                           -------------------------------
        Real Lattice(A)                      Reciprocal Lattice(1/A)
    13.4840002    -0.0000006    -0.0000006        0.465973392   0.000000000   0.000000000
     0.0000000    20.4006996    -0.0000009        0.000000013   0.307988717   0.000000000
     0.0000000     0.0000000    45.0000000        0.000000006   0.000000006   0.139626340
 
                       Lattice parameters(A)       Cell Angles
                    a =     13.484000          alpha =   90.000003
                    b =     20.400700          beta  =   90.000003
                    c =     45.000000          gamma =   90.000003
 
                       Current cell volume =         12378.736702       A**3
                                   density =             0.015698   AMU/A**3
                                           =             0.026068     g/cm^3
 
                           -------------------------------
                                     Cell Contents
                           -------------------------------
                         Total number of ions in cell =   32
                      Total number of species in cell =    5
                        Max number of any one species =   20
 
            xxxxxxxxxxxxxxxxxxxxxxxxxxxxxxxxxxxxxxxxxxxxxxxxxxxxxxxxxxxx
            x  Element    Atom        Fractional coordinates of atoms  x
            x            Number           u          v          w      x
            x----------------------------------------------------------x
            x  H            1         0.600839   0.402221   0.541213   x 
            x  H            2         0.622723   0.485407   0.529751   x 
            x  H            3         0.421299   0.430017   0.551161   x 
            x  H            4         0.442692   0.512120   0.539694   x 
            x  H            5         0.679897   0.449433   0.482680   x 
            x  H            6         0.660904   0.366729   0.495274   x 
            x  H            7         0.537710   0.351485   0.451324   x 
            x  H            8         0.664647   0.356102   0.442846   x 
            x  H            9         0.574245   0.418467   0.405781   x 
            x  H           10         0.648883   0.472712   0.426523   x 
            x  H           11         0.334699   0.432181   0.425642   x 
            x  H           12         0.378228   0.566979   0.409064   x 
            x  H           13         0.472296   0.580427   0.465484   x 
            x  H           14         0.482243   0.392268   0.499878   x 
            x  H           15         0.502454   0.468988   0.489848   x 
            x  H           16         0.542714   0.445030   0.593113   x 
            x  H           17         0.563212   0.527061   0.581721   x 
            x  H           18         0.441188   0.522766   0.623524   x 
            x  H           19         0.362513   0.470645   0.602365   x 
            x  H           20         0.382863   0.553169   0.590855   x 
            x  C            1         0.566248   0.446521   0.531728   x 
            x  C            2         0.477820   0.469128   0.550247   x 
            x  C            3         0.628253   0.407540   0.482510   x 
            x  C            4         0.601266   0.385623   0.450913   x 
            x  C            5         0.582675   0.441026   0.427962   x 
            x  C            6         0.507341   0.487449   0.582124   x 
            x  C            7         0.418647   0.509740   0.600726   x 
            x  N            1         0.532664   0.428923   0.499584   x 
            x  O            1         0.440491   0.545369   0.409202   x 
            x  O            2         0.489604   0.535172   0.465934   x 
            x  O            3         0.373803   0.446892   0.441894   x 
            x  Si           1         0.469192   0.493831   0.435285   x 
            xxxxxxxxxxxxxxxxxxxxxxxxxxxxxxxxxxxxxxxxxxxxxxxxxxxxxxxxxxxx
 
 
                         No user defined ionic velocities
 
                           -------------------------------
                                   Details of Species
                           -------------------------------
 
                               Mass of species in AMU
                                    H    1.0080000
                                    C   12.0109997
                                    N   14.0070000
                                    O   15.9989996
                                    Si   28.0849991
 
                          Electric Quadrupole Moment (Barn)
                                    H    0.0028600 Isotope  2
                                    C    0.0332700 Isotope 11
                                    N    0.0204400 Isotope 14
                                    O   -0.0255800 Isotope 17
                                    Si    1.0000000 No Isotope Defined
 
                          Files used for pseudopotentials:
                                    H 1|0.6|9|10|15|10UU(qc=8)[]
                                    C 2|1.4|11|12|14.7|20UU:21UU(qc=7)[]
                                    N 2|1.1|12|16|19|20UU:21UU(qc=7)[]
                                    O 2|1.1|14|18|21|20UU:21UU(qc=7)[]
                                    Si 3|1.8|3.6|5|7|30UU:31UU:32UU[]
 
                           -------------------------------
                              k-Points For BZ Sampling
                           -------------------------------
                       MP grid size for SCF calculation is  1  1  1
                            with an offset of   0.000  0.000  0.000
                       Number of kpoints used =             1
 
                           -------------------------------
                               Symmetry and Constraints
                           -------------------------------
 
                      Maximum deviation from symmetry =  0.00000         ANG
 
                      Number of symmetry operations   =           1
                      Number of nonlinear constraints =           3
         There are no ionic constraints specified or generated for this cell
                      Point group of crystal =     1: C1, 1, 1
                      Space group of crystal =     1: P1, P 1
 
             Set iprint > 1 for details on symmetry rotations/translations
 
                         Centre of mass is NOT constrained
 
                         Number of cell constraints= 6
                         Cell constraints are:  0 0 0 0 0 0
 
                         External pressure/stress (GPa)
                          0.00000   0.00000   0.00000
                                    0.00000   0.00000
                                              0.00000
 
                                --------------------
                                  DFT-D parameters
                                --------------------
 
                          Dispersion-correction scheme : G06       
                        Parameter s6 :   0.750000 (default)
                        Parameter d  :  20.000000 (default)
 
        xxxxxxxxxxxxxxxxxxxxxxxxxxxxxxxxxxxxxxxxxxxxxxxxxxxxxxxxxxxxxxxxxxxx
        x              Atomic DFT-D parameters                             x
        x  Species      C6            R0                                   x
        x               eV A^6        Ang                                  x
        x------------------------------------------------------------------x
        x  H             1.4510       1.0010   (default)                   x
        x  C            18.1375       1.4520   (default)                   x
        x  N            12.7481       1.3970   (default)                   x
        x  O             7.2550       1.3420   (default)                   x
        x  Si           95.6622       1.7160   (default)                   x
        xxxxxxxxxxxxxxxxxxxxxxxxxxxxxxxxxxxxxxxxxxxxxxxxxxxxxxxxxxxxxxxxxxxx
 
 
+---------------- MEMORY AND SCRATCH DISK ESTIMATES PER PROCESS --------------+
|                                                     Memory          Disk    |
| Baseline code, static data and system overhead     6533.0 MB         0.0 MB |
| BLAS internal memory storage                          0.0 MB         0.0 MB |
| Model and support data                              540.6 MB         0.0 MB |
| Electronic energy minimisation requirements          31.8 MB         0.0 MB |
| Force calculation requirements                        6.8 MB         0.0 MB |
|                                               ----------------------------- |
| Approx. total storage required per process         7105.3 MB         0.0 MB |
|                                                                             |
| Requirements will fluctuate during execution and may exceed these estimates |
+-----------------------------------------------------------------------------+
Calculating approximate eigenstates for fixed initial Hamiltonian
Cut-off for approx. calculation is  119.774 eV
Improving approx. states at cut-off of  300.000 eV
Resetting cut-off to  600.000 eV
Calculating total energy with cut-off of  600.000 eV.
------------------------------------------------------------------------ <-- SCF
SCF loop      Energy                           Energy gain       Timer   <-- SCF
                                               per atom          (sec)   <-- SCF
------------------------------------------------------------------------ <-- SCF
Initial  -2.93243678E+003                                         31.29  <-- SCF
      1  -3.20270222E+003                    8.44579498E+000      32.14  <-- SCF
      2  -3.20299939E+003                    9.28647163E-003      32.96  <-- SCF
      3  -3.19288003E+003                   -3.16229854E-001      34.11  <-- SCF
      4  -3.19174554E+003                   -3.54527824E-002      35.28  <-- SCF
      5  -3.19122794E+003                   -1.61750047E-002      36.30  <-- SCF
      6  -3.19116095E+003                   -2.09344731E-003      37.61  <-- SCF
      7  -3.19112138E+003                   -1.23671922E-003      38.64  <-- SCF
      8  -3.19111925E+003                   -6.65974529E-005      39.77  <-- SCF
      9  -3.19111055E+003                   -2.71821244E-004      40.78  <-- SCF
     10  -3.19109583E+003                   -4.60008888E-004      41.83  <-- SCF
     11  -3.19107545E+003                   -6.36901462E-004      42.85  <-- SCF
     12  -3.19099775E+003                   -2.42801853E-003      43.86  <-- SCF
     13  -3.19092620E+003                   -2.23600626E-003      44.93  <-- SCF
     14  -3.19085062E+003                   -2.36166387E-003      45.96  <-- SCF
     15  -3.19079359E+003                   -1.78234066E-003      46.98  <-- SCF
     16  -3.19075905E+003                   -1.07927323E-003      48.00  <-- SCF
     17  -3.19072875E+003                   -9.46826460E-004      48.99  <-- SCF
     18  -3.19069788E+003                   -9.64787691E-004      49.99  <-- SCF
     19  -3.19067037E+003                   -8.59869553E-004      50.99  <-- SCF
     20  -3.19064598E+003                   -7.61973055E-004      51.91  <-- SCF
     21  -3.19061851E+003                   -8.58660364E-004      52.92  <-- SCF
     22  -3.19061166E+003                   -2.13965178E-004      54.00  <-- SCF
     23  -3.19061151E+003                   -4.54086090E-006      55.06  <-- SCF
     24  -3.19061204E+003                    1.64686657E-005      56.11  <-- SCF
     25  -3.19061516E+003                    9.75258319E-005      56.96  <-- SCF
     26  -3.19061942E+003                    1.33029199E-004      57.83  <-- SCF
     27  -3.19062370E+003                    1.33699952E-004      58.67  <-- SCF
     28  -3.19062636E+003                    8.31338004E-005      59.47  <-- SCF
     29  -3.19062968E+003                    1.03814157E-004      60.27  <-- SCF
     30  -3.19063210E+003                    7.55753082E-005      61.08  <-- SCF
     31  -3.19063418E+003                    6.50114159E-005      61.89  <-- SCF
     32  -3.19063622E+003                    6.37733748E-005      62.73  <-- SCF
     33  -3.19063705E+003                    2.59355590E-005      63.53  <-- SCF
     34  -3.19063784E+003                    2.48874384E-005      64.34  <-- SCF
     35  -3.19063834E+003                    1.54250091E-005      65.15  <-- SCF
     36  -3.19063894E+003                    1.89357113E-005      65.95  <-- SCF
     37  -3.19063958E+003                    1.97902289E-005      66.76  <-- SCF
     38  -3.19064002E+003                    1.39011695E-005      67.56  <-- SCF
     39  -3.19064048E+003                    1.43866597E-005      68.36  <-- SCF
     40  -3.19064074E+003                    8.04407061E-006      69.17  <-- SCF
     41  -3.19064103E+003                    8.96138723E-006      69.97  <-- SCF
     42  -3.19064124E+003                    6.64962986E-006      70.78  <-- SCF
     43  -3.19064137E+003                    4.18490858E-006      71.59  <-- SCF
     44  -3.19064148E+003                    3.44947342E-006      72.40  <-- SCF
     45  -3.19064153E+003                    1.30053577E-006      73.20  <-- SCF
     46  -3.19064155E+003                    6.63833459E-007      74.00  <-- SCF
------------------------------------------------------------------------ <-- SCF
 
Final energy =  -3190.641546532     eV
(energy not corrected for finite basis set)
 
(SEDC) Total Energy Correction : -0.808971E+00 eV

Dispersion corrected final energy* =  -3191.450517997     eV

Writing analysis data to Conf_0006.castep_bin

Writing model to Conf_0006.check

WARNING - nonlinear constraints cannot be used with LBFGS algorithm
        - consider setting geom_method=DELOCALIZED
 
        => Turning nonlinear constraints OFF
 
+---------------- MEMORY AND SCRATCH DISK ESTIMATES PER PROCESS --------------+
|                                                     Memory          Disk    |
| Model and support data                              550.1 MB         0.0 MB |
| Electronic energy minimisation requirements          31.8 MB         0.0 MB |
| Geometry minimisation requirements                   34.8 MB         0.0 MB |
|                                               ----------------------------- |
| Approx. total storage required per process          616.7 MB         0.0 MB |
|                                                                             |
| Requirements will fluctuate during execution and may exceed these estimates |
+-----------------------------------------------------------------------------+
 
 
 ************************************** Forces **************************************
 *                                                                                  *
 *                           Cartesian components (eV/A)                            *
 * -------------------------------------------------------------------------------- *
 *                         x                    y                    z              *
 *                                                                                  *
 * H               1     -0.07899              0.13535             -0.18229         *
 * H               2     -0.15346             -0.17991             -0.14290         *
 * H               3      0.04508             -0.02557             -0.01776         *
 * H               4      0.00479             -0.03495             -0.02149         *
 * H               5     -0.25456             -0.00254              0.03475         *
 * H               6     -0.18956              0.15553             -0.01237         *
 * H               7      0.05071              0.06262              0.12630         *
 * H               8     -0.14089              0.09326              0.08958         *
 * H               9     -0.04890              0.07510              0.12879         *
 * H              10     -0.05024             -0.01328             -0.01894         *
 * H              11     -0.52007             -0.36104             -0.72599         *
 * H              12     -0.94190              0.43410             -0.08255         *
 * H              13     -0.19229              0.86404              0.15539         *
 * H              14     -0.36478             -0.51211              0.01262         *
 * H              15     -0.37501              1.08397             -0.34405         *
 * H              16     -0.01492              0.03815             -0.09704         *
 * H              17     -0.03343             -0.11751             -0.06939         *
 * H              18     -0.01331             -0.03275             -0.17688         *
 * H              19      0.04285              0.01524             -0.01584         *
 * H              20      0.02317             -0.01798             -0.00635         *
 * C               1     -0.87935              0.00866             -0.27266         *
 * C               2      0.00520              0.04929              0.05052         *
 * C               3     -1.23137             -0.17719             -0.39077         *
 * C               4      0.37624             -0.00510             -0.25198         *
 * C               5     -0.28831              0.39302              0.13006         *
 * C               6      0.16007              0.01579              0.15756         *
 * C               7     -0.12488              0.02484              0.03683         *
 * N               1      3.20600             -0.56236              1.57781         *
 * O               1      1.26292             -0.20659             -0.52793         *
 * O               2      0.41908             -0.55943              0.85016         *
 * O               3      0.07338             -0.23829              1.22842         *
 * Si              1      0.22676             -0.40234             -1.22161         *
 *                                                                                  *
 ************************************************************************************
 EXP precond LBFGS => estimated nearest neighbor distance :  1.623       A
 EXP precond LBFGS => estimated cutoff distance :  3.245       A
 doing test perturbation to get energy scale for EXP preconditioner
 
                           -------------------------------
                                     Cell Contents
                           -------------------------------
 
            xxxxxxxxxxxxxxxxxxxxxxxxxxxxxxxxxxxxxxxxxxxxxxxxxxxxxxxxxxxxxxxxx
            x  Element         Atom        Fractional coordinates of atoms  x
            x                 Number           u          v          w      x
            x---------------------------------------------------------------x
            x  H                 1         0.602025   0.403003   0.541433   x
            x  H                 2         0.623893   0.486086   0.529985   x
            x  H                 3         0.422429   0.430775   0.551368   x
            x  H                 4         0.443846   0.512745   0.539916   x
            x  H                 5         0.681006   0.450168   0.482968   x
            x  H                 6         0.662037   0.367524   0.495549   x
            x  H                 7         0.538913   0.352280   0.451640   x
            x  H                 8         0.665776   0.356898   0.443169   x
            x  H                 9         0.575443   0.419236   0.406126   x
            x  H                10         0.650029   0.473412   0.426857   x
            x  H                11         0.335692   0.432937   0.425976   x
            x  H                12         0.379298   0.567470   0.409407   x
            x  H                13         0.473475   0.580880   0.465788   x
            x  H                14         0.483428   0.393056   0.500148   x
            x  H                15         0.503649   0.469695   0.490129   x
            x  H                16         0.543917   0.445771   0.593260   x
            x  H                17         0.564413   0.527653   0.581884   x
            x  H                18         0.442340   0.523367   0.623623   x
            x  H                19         0.363557   0.471349   0.602497   x
            x  H                20         0.383940   0.553697   0.591005   x
            x  C                 1         0.567449   0.447260   0.531960   x
            x  C                 2         0.479003   0.469834   0.550455   x
            x  C                 3         0.629419   0.408318   0.482798   x
            x  C                 4         0.602451   0.386413   0.451229   x
            x  C                 5         0.583870   0.441772   0.428295   x
            x  C                 6         0.508539   0.488123   0.582286   x
            x  C                 7         0.419774   0.510370   0.600861   x
            x  N                 1         0.533867   0.429682   0.499854   x
            x  O                 1         0.441643   0.545917   0.409546   x
            x  O                 2         0.490794   0.535745   0.466237   x
            x  O                 3         0.374866   0.447631   0.442217   x
            x  Si                1         0.470368   0.494494   0.435613   x
            xxxxxxxxxxxxxxxxxxxxxxxxxxxxxxxxxxxxxxxxxxxxxxxxxxxxxxxxxxxxxxxxx
 
 
------------------------------------------------------------------------ <-- SCF
SCF loop      Energy                           Energy gain       Timer   <-- SCF
                                               per atom          (sec)   <-- SCF
------------------------------------------------------------------------ <-- SCF
Initial  -3.19210134E+003                                         76.14  <-- SCF
      1  -3.19062328E+003                   -4.61891338E-002      76.97  <-- SCF
      2  -3.19064888E+003                    7.99815264E-004      78.10  <-- SCF
      3  -3.19062138E+003                   -8.59261798E-004      79.11  <-- SCF
      4  -3.19063936E+003                    5.61816748E-004      80.12  <-- SCF
      5  -3.19063965E+003                    9.19883634E-006      80.98  <-- SCF
      6  -3.19063987E+003                    6.65309675E-006      81.75  <-- SCF
      7  -3.19063994E+003                    2.21546236E-006      82.51  <-- SCF
      8  -3.19064001E+003                    2.37706789E-006      83.28  <-- SCF
      9  -3.19064004E+003                    8.44949164E-007      84.05  <-- SCF
     10  -3.19064009E+003                    1.60066358E-006      84.82  <-- SCF
     11  -3.19064011E+003                    4.79206496E-007      85.59  <-- SCF
     12  -3.19064015E+003                    1.34316970E-006      86.36  <-- SCF
------------------------------------------------------------------------ <-- SCF
 
Final energy =  -3190.640150291     eV
(energy not corrected for finite basis set)
 
(SEDC) Total Energy Correction : -0.809762E+00 eV

Dispersion corrected final energy* =  -3191.449912441     eV
 
 ************************************** Forces **************************************
 *                                                                                  *
 *                           Cartesian components (eV/A)                            *
 * -------------------------------------------------------------------------------- *
 *                         x                    y                    z              *
 *                                                                                  *
 * H               1     -0.06899              0.10089             -0.17034         *
 * H               2     -0.13032             -0.15342             -0.15193         *
 * H               3      0.04922             -0.04321             -0.01651         *
 * H               4     -0.00314              0.01844             -0.03741         *
 * H               5     -0.22736              0.02029              0.04763         *
 * H               6     -0.18252              0.14659              0.00382         *
 * H               7      0.03211              0.08830              0.11638         *
 * H               8     -0.11734              0.06918              0.07732         *
 * H               9     -0.04349              0.06051              0.10405         *
 * H              10     -0.03247              0.01195             -0.01136         *
 * H              11     -0.50992             -0.34865             -0.72058         *
 * H              12     -0.93028              0.42966             -0.07482         *
 * H              13     -0.23082              0.99005              0.16618         *
 * H              14     -0.35829             -0.51220              0.00018         *
 * H              15     -0.39331              1.11375             -0.35833         *
 * H              16      0.02724             -0.00697             -0.07634         *
 * H              17     -0.02147             -0.07248             -0.07200         *
 * H              18     -0.00979             -0.03015             -0.13032         *
 * H              19      0.04304             -0.00081             -0.00949         *
 * H              20      0.02871              0.02889             -0.01854         *
 * C               1     -0.91009              0.00281             -0.27353         *
 * C               2      0.01879              0.01995              0.04515         *
 * C               3     -1.24833             -0.18371             -0.38815         *
 * C               4      0.36939             -0.01958             -0.25790         *
 * C               5     -0.31088              0.38537              0.13039         *
 * C               6      0.12042              0.02303              0.17066         *
 * C               7     -0.10720             -0.00373              0.03460         *
 * N               1      3.20009             -0.68945              1.53873         *
 * O               1      1.20383             -0.14156             -0.56524         *
 * O               2      0.45208             -0.58375              0.88416         *
 * O               3      0.06663             -0.25288              1.24106         *
 * Si              1      0.22443             -0.46713             -1.22753         *
 *                                                                                  *
 ************************************************************************************
 EXP precond LBFGS => estimated parameter mu :  1.000       eV/A**2
 LBFGS: finished iteration     0 with enthalpy= -3.19145052E+003 eV
  
 +-----------+-----------------+-----------------+------------+-----+ <-- LBFGS
 | Parameter |      value      |    tolerance    |    units   | OK? | <-- LBFGS
 +-----------+-----------------+-----------------+------------+-----+ <-- LBFGS
 |  dE/ion   |   0.000000E+000 |   2.000000E-005 |         eV | No  | <-- LBFGS
 |  |F|max   |   3.617125E+000 |   5.000000E-002 |       eV/A | No  | <-- LBFGS
 |  |dR|max  |   3.833810E-015 |   2.000000E-003 |          A | No  | <-- LBFGS
 +-----------+-----------------+-----------------+------------+-----+ <-- LBFGS
  

================================================================================
 Starting LBFGS iteration          1 ...
================================================================================
  
 +------------+-------------+-------------+-----------------+ <-- min LBFGS
 |    Step    |   lambda    |   F.delta'  |    enthalpy     | <-- min LBFGS
 +------------+-------------+-------------+-----------------+ <-- min LBFGS
 |  previous  |    0.000000 |    2.584824 |    -3191.450518 | <-- min LBFGS
 +------------+-------------+-------------+-----------------+ <-- min LBFGS
  

--------------------------------------------------------------------------------
 LBFGS: starting iteration         1 with trial guess (lambda=  0.627249)
--------------------------------------------------------------------------------
 
                           -------------------------------
                                     Cell Contents
                           -------------------------------
 
            xxxxxxxxxxxxxxxxxxxxxxxxxxxxxxxxxxxxxxxxxxxxxxxxxxxxxxxxxxxxxxxxx
            x  Element         Atom        Fractional coordinates of atoms  x
            x                 Number           u          v          w      x
            x---------------------------------------------------------------x
            x  H                 1         0.598969   0.402504   0.541169   x
            x  H                 2         0.620290   0.484247   0.529786   x
            x  H                 3         0.422036   0.429325   0.551360   x
            x  H                 4         0.443121   0.511447   0.539880   x
            x  H                 5         0.674383   0.450089   0.483357   x
            x  H                 6         0.655840   0.368019   0.495855   x
            x  H                 7         0.536786   0.353312   0.452084   x
            x  H                 8         0.661298   0.358455   0.443434   x
            x  H                 9         0.571205   0.421426   0.406226   x
            x  H                10         0.645597   0.475197   0.426666   x
            x  H                11         0.326850   0.423117   0.423774   x
            x  H                12         0.377761   0.569779   0.404769   x
            x  H                13         0.477064   0.587330   0.467737   x
            x  H                14         0.486379   0.389830   0.501694   x
            x  H                15         0.506776   0.472851   0.491056   x
            x  H                16         0.542637   0.444457   0.592752   x
            x  H                17         0.562974   0.525662   0.581425   x
            x  H                18         0.440757   0.521785   0.622661   x
            x  H                19         0.362573   0.469944   0.601931   x
            x  H                20         0.382759   0.552279   0.590444   x
            x  C                 1         0.562808   0.446147   0.531863   x
            x  C                 2         0.478002   0.468650   0.550487   x
            x  C                 3         0.621155   0.407867   0.482834   x
            x  C                 4         0.600446   0.387428   0.451117   x
            x  C                 5         0.579116   0.444370   0.428230   x
            x  C                 6         0.507876   0.486669   0.582108   x
            x  C                 7         0.418030   0.508975   0.600326   x
            x  N                 1         0.547231   0.427813   0.502604   x
            x  O                 1         0.452137   0.545417   0.404470   x
            x  O                 2         0.497159   0.536267   0.468720   x
            x  O                 3         0.370789   0.439579   0.443190   x
            x  Si                1         0.473450   0.491186   0.431840   x
            xxxxxxxxxxxxxxxxxxxxxxxxxxxxxxxxxxxxxxxxxxxxxxxxxxxxxxxxxxxxxxxxx
 
 
------------------------------------------------------------------------ <-- SCF
SCF loop      Energy                           Energy gain       Timer   <-- SCF
                                               per atom          (sec)   <-- SCF
------------------------------------------------------------------------ <-- SCF
Initial  -3.20514796E+003                                         87.71  <-- SCF
      1  -3.18375951E+003                   -6.68389061E-001      88.51  <-- SCF
      2  -3.18854887E+003                    1.49667588E-001      89.78  <-- SCF
      3  -3.18779364E+003                   -2.36009149E-002      90.97  <-- SCF
      4  -3.18786423E+003                    2.20579038E-003      92.10  <-- SCF
      5  -3.18790197E+003                    1.17953498E-003      93.23  <-- SCF
      6  -3.18790233E+003                    1.10855626E-005      94.40  <-- SCF
      7  -3.18790164E+003                   -2.15878704E-005      95.37  <-- SCF
      8  -3.18790128E+003                   -1.11691796E-005      96.32  <-- SCF
      9  -3.18790107E+003                   -6.67145828E-006      97.21  <-- SCF
     10  -3.18790085E+003                   -6.82020484E-006      98.18  <-- SCF
     11  -3.18790104E+003                    5.85227968E-006      98.99  <-- SCF
     12  -3.18790149E+003                    1.40297656E-005      99.89  <-- SCF
     13  -3.18790182E+003                    1.05267779E-005     100.66  <-- SCF
     14  -3.18790225E+003                    1.33961670E-005     101.44  <-- SCF
     15  -3.18790269E+003                    1.38630703E-005     102.21  <-- SCF
     16  -3.18790293E+003                    7.43401840E-006     102.99  <-- SCF
     17  -3.18790329E+003                    1.13105701E-005     103.76  <-- SCF
     18  -3.18790376E+003                    1.45981257E-005     104.54  <-- SCF
     19  -3.18790390E+003                    4.38502885E-006     105.33  <-- SCF
     20  -3.18790422E+003                    9.86379581E-006     106.12  <-- SCF
     21  -3.18790436E+003                    4.31744315E-006     106.90  <-- SCF
     22  -3.18790441E+003                    1.55197997E-006     107.73  <-- SCF
     23  -3.18790450E+003                    2.95314156E-006     108.53  <-- SCF
     24  -3.18790450E+003                   -7.00921767E-008     109.32  <-- SCF
     25  -3.18790463E+003                    4.22618279E-006     110.12  <-- SCF
     26  -3.18790468E+003                    1.37926869E-006     110.91  <-- SCF
     27  -3.18790485E+003                    5.34287992E-006     111.70  <-- SCF
     28  -3.18790490E+003                    1.55516848E-006     112.49  <-- SCF
     29  -3.18790496E+003                    2.08317349E-006     113.28  <-- SCF
     30  -3.18790514E+003                    5.32698517E-006     114.07  <-- SCF
     31  -3.18790517E+003                    1.22508595E-006     114.86  <-- SCF
     32  -3.18790544E+003                    8.15111484E-006     115.65  <-- SCF
     33  -3.18790554E+003                    3.33704773E-006     116.45  <-- SCF
     34  -3.18790572E+003                    5.53274673E-006     117.24  <-- SCF
     35  -3.18790593E+003                    6.69401747E-006     118.03  <-- SCF
     36  -3.18790608E+003                    4.61339734E-006     118.81  <-- SCF
     37  -3.18790627E+003                    5.96198510E-006     119.60  <-- SCF
     38  -3.18790636E+003                    2.60491347E-006     120.39  <-- SCF
     39  -3.18790644E+003                    2.70474043E-006     121.18  <-- SCF
     40  -3.18790649E+003                    1.49258287E-006     121.99  <-- SCF
     41  -3.18790653E+003                    1.33588138E-006     122.80  <-- SCF
     42  -3.18790655E+003                    6.50689916E-007     123.59  <-- SCF
------------------------------------------------------------------------ <-- SCF
 
Final energy =  -3187.906552919     eV
(energy not corrected for finite basis set)
 
(SEDC) Total Energy Correction : -0.801136E+00 eV

Dispersion corrected final energy* =  -3188.707689405     eV
 
 ************************************** Forces **************************************
 *                                                                                  *
 *                           Cartesian components (eV/A)                            *
 * -------------------------------------------------------------------------------- *
 *                         x                    y                    z              *
 *                                                                                  *
 * H               1      0.22355              0.09174              0.73982         *
 * H               2      0.13445              0.16006              0.49574         *
 * H               3     -0.13059             -0.01946              0.02029         *
 * H               4     -0.14866              0.01601             -0.02240         *
 * H               5     -0.01078             -0.51832             -0.21440         *
 * H               6      0.56129             -0.23772             -0.63012         *
 * H               7     -0.06104              0.10377             -0.29797         *
 * H               8      0.86306             -0.34520             -0.23786         *
 * H               9      0.16161             -0.18496             -0.15734         *
 * H              10      0.08403              0.15348             -0.06283         *
 * H              11      2.26726              1.25732              3.24609         *
 * H              12      3.93738             -2.01792             -0.02065         *
 * H              13      0.79698             -3.55299              0.22881         *
 * H              14      1.77649              1.74929              0.16500         *
 * H              15      1.04864             -1.33574              0.93825         *
 * H              16      0.14173             -0.23981              0.16093         *
 * H              17      0.28707              0.25153              0.01918         *
 * H              18      0.08845              0.14125              0.48107         *
 * H              19     -0.10681             -0.13582             -0.03013         *
 * H              20     -0.04176              0.06283             -0.09733         *
 * C               1      3.09412              0.10912              2.37682         *
 * C               2     -0.86315              0.00400             -0.29489         *
 * C               3      4.23876             -0.01209              0.31840         *
 * C               4     -2.11039              0.69328              0.19846         *
 * C               5      2.71192             -2.27594             -0.21327         *
 * C               6     -0.35911              0.00700             -0.04233         *
 * C               7      0.12907             -0.09505             -0.37367         *
 * N               1     -9.13988              0.55503             -4.21441         *
 * O               1     -3.59315              0.87165              1.02607         *
 * O               2     -1.32729              1.83062             -2.48598         *
 * O               3     -0.08960              0.51915             -4.05447         *
 * Si              1     -4.56366              2.39388              3.03512         *
 *                                                                                  *
 ************************************************************************************
  
 +------------+-------------+-------------+-----------------+ <-- min LBFGS
 |    Step    |   lambda    |   F.delta'  |    enthalpy     | <-- min LBFGS
 +------------+-------------+-------------+-----------------+ <-- min LBFGS
 |  previous  |    0.000000 |    2.584824 |    -3191.450518 | <-- min LBFGS
 | trial step |    0.627249 |   -7.790941 |    -3188.707689 | <-- min LBFGS
 +------------+-------------+-------------+-----------------+ <-- min LBFGS
  

--------------------------------------------------------------------------------
 LBFGS: improving iteration         1 with line minimization (lambda=  0.156261)
--------------------------------------------------------------------------------
 
                           -------------------------------
                                     Cell Contents
                           -------------------------------
 
            xxxxxxxxxxxxxxxxxxxxxxxxxxxxxxxxxxxxxxxxxxxxxxxxxxxxxxxxxxxxxxxxx
            x  Element         Atom        Fractional coordinates of atoms  x
            x                 Number           u          v          w      x
            x---------------------------------------------------------------x
            x  H                 1         0.600373   0.402292   0.541202   x
            x  H                 2         0.622117   0.485118   0.529759   x
            x  H                 3         0.421482   0.429844   0.551211   x
            x  H                 4         0.442799   0.511952   0.539740   x
            x  H                 5         0.678523   0.449596   0.482849   x
            x  H                 6         0.659643   0.367050   0.495419   x
            x  H                 7         0.537480   0.351940   0.451513   x
            x  H                 8         0.663813   0.356688   0.442992   x
            x  H                 9         0.573488   0.419204   0.405892   x
            x  H                10         0.648064   0.473331   0.426559   x
            x  H                11         0.332744   0.429923   0.425177   x
            x  H                12         0.378112   0.567676   0.407994   x
            x  H                13         0.473484   0.582147   0.466045   x
            x  H                14         0.483273   0.391661   0.500331   x
            x  H                15         0.503531   0.469951   0.490149   x
            x  H                16         0.542695   0.444887   0.593023   x
            x  H                17         0.563153   0.526712   0.581647   x
            x  H                18         0.441080   0.522521   0.623309   x
            x  H                19         0.362528   0.470471   0.602257   x
            x  H                20         0.382837   0.552947   0.590753   x
            x  C                 1         0.565391   0.446428   0.531761   x
            x  C                 2         0.477866   0.469009   0.550307   x
            x  C                 3         0.626485   0.407622   0.482591   x
            x  C                 4         0.601061   0.386073   0.450964   x
            x  C                 5         0.581788   0.441859   0.428029   x
            x  C                 6         0.507475   0.487255   0.582120   x
            x  C                 7         0.418493   0.509549   0.600627   x
            x  N                 1         0.536293   0.428647   0.500336   x
            x  O                 1         0.443392   0.545381   0.408023   x
            x  O                 2         0.491486   0.535445   0.466628   x
            x  O                 3         0.373052   0.445070   0.442217   x
            x  Si                1         0.470252   0.493172   0.434427   x
            xxxxxxxxxxxxxxxxxxxxxxxxxxxxxxxxxxxxxxxxxxxxxxxxxxxxxxxxxxxxxxxxx
 
 
------------------------------------------------------------------------ <-- SCF
SCF loop      Energy                           Energy gain       Timer   <-- SCF
                                               per atom          (sec)   <-- SCF
------------------------------------------------------------------------ <-- SCF
Initial  -3.21073942E+003                                        124.94  <-- SCF
      1  -3.18921354E+003                   -6.72683718E-001     125.73  <-- SCF
      2  -3.19118861E+003                    6.17210091E-002     126.90  <-- SCF
      3  -3.19074151E+003                   -1.39721084E-002     128.03  <-- SCF
      4  -3.19082996E+003                    2.76426529E-003     129.06  <-- SCF
      5  -3.19086004E+003                    9.39810714E-004     130.19  <-- SCF
      6  -3.19085995E+003                   -2.65748725E-006     131.26  <-- SCF
      7  -3.19085914E+003                   -2.54466886E-005     132.16  <-- SCF
      8  -3.19085835E+003                   -2.47557783E-005     133.11  <-- SCF
      9  -3.19085831E+003                   -1.19325943E-006     133.97  <-- SCF
     10  -3.19085849E+003                    5.82843550E-006     134.81  <-- SCF
     11  -3.19085935E+003                    2.66084171E-005     135.67  <-- SCF
     12  -3.19085973E+003                    1.20305952E-005     136.44  <-- SCF
     13  -3.19086014E+003                    1.28232785E-005     137.27  <-- SCF
     14  -3.19086030E+003                    5.04756069E-006     138.06  <-- SCF
     15  -3.19086046E+003                    5.01440378E-006     138.85  <-- SCF
     16  -3.19086047E+003                    1.01627128E-007     139.62  <-- SCF
     17  -3.19086061E+003                    4.51070269E-006     140.40  <-- SCF
     18  -3.19086067E+003                    1.89380277E-006     141.18  <-- SCF
     19  -3.19086078E+003                    3.24252089E-006     141.96  <-- SCF
     20  -3.19086081E+003                    1.21462411E-006     142.75  <-- SCF
     21  -3.19086093E+003                    3.46957911E-006     143.53  <-- SCF
     22  -3.19086101E+003                    2.58517462E-006     144.32  <-- SCF
     23  -3.19086106E+003                    1.55860288E-006     145.11  <-- SCF
     24  -3.19086115E+003                    2.75346421E-006     145.90  <-- SCF
     25  -3.19086114E+003                   -1.18611878E-007     146.69  <-- SCF
     26  -3.19086118E+003                    1.32817823E-006     147.48  <-- SCF
------------------------------------------------------------------------ <-- SCF
 
Final energy =  -3190.861184753     eV
(energy not corrected for finite basis set)
 
(SEDC) Total Energy Correction : -0.806005E+00 eV

Dispersion corrected final energy* =  -3191.667189628     eV
 
 ************************************** Forces **************************************
 *                                                                                  *
 *                           Cartesian components (eV/A)                            *
 * -------------------------------------------------------------------------------- *
 *                         x                    y                    z              *
 *                                                                                  *
 * H               1     -0.00765              0.13500              0.01061         *
 * H               2     -0.08698             -0.11893             -0.00048         *
 * H               3      0.00876             -0.02045              0.00032         *
 * H               4     -0.02578             -0.02618             -0.01164         *
 * H               5     -0.23609             -0.14478             -0.00104         *
 * H               6     -0.03383              0.08822             -0.14268         *
 * H               7      0.04043              0.07413              0.02888         *
 * H               8      0.08990              0.00277              0.01757         *
 * H               9      0.00584              0.02086              0.06973         *
 * H              10     -0.01487              0.03973             -0.01930         *
 * H              11      0.51270              0.23694              0.71098         *
 * H              12      0.89425             -0.50960             -0.05850         *
 * H              13      0.14289             -0.64402              0.14230         *
 * H              14      0.36668              0.26090              0.00980         *
 * H              15      0.19391             -0.00331              0.22245         *
 * H              16      0.03298             -0.02595             -0.03032         *
 * H              17      0.05182             -0.03004             -0.04004         *
 * H              18      0.01699              0.01108             -0.01219         *
 * H              19      0.01409             -0.02001             -0.01302         *
 * H              20      0.01565              0.00474             -0.02056         *
 * C               1      0.01148             -0.05373              0.05991         *
 * C               2     -0.18714              0.03477             -0.02829         *
 * C               3     -0.12653             -0.04261             -0.03799         *
 * C               4     -0.20178              0.15184             -0.14443         *
 * C               5      0.25288             -0.14245              0.02431         *
 * C               6      0.03646              0.01596              0.11202         *
 * C               7     -0.05001             -0.00303             -0.05396         *
 * N               1      0.04013             -0.03482             -0.01684         *
 * O               1     -0.58370              0.35734             -0.11444         *
 * O               2     -0.24251              0.04655             -0.56867         *
 * O               3     -0.03980             -0.02235             -0.54113         *
 * Si              1     -0.89116              0.36143              0.44662         *
 *                                                                                  *
 ************************************************************************************
  
 +------------+-------------+-------------+-----------------+ <-- min LBFGS
 |    Step    |   lambda    |   F.delta'  |    enthalpy     | <-- min LBFGS
 +------------+-------------+-------------+-----------------+ <-- min LBFGS
 |  previous  |    0.000000 |    2.584824 |    -3191.450518 | <-- min LBFGS
 | trial step |    0.627249 |   -7.790941 |    -3188.707689 | <-- min LBFGS
 |  line step |    0.156261 |   -0.569842 |    -3191.667190 | <-- min LBFGS
 +------------+-------------+-------------+-----------------+ <-- min LBFGS
  
 LBFGS: finished iteration     1 with enthalpy= -3.19166719E+003 eV
  
 +-----------+-----------------+-----------------+------------+-----+ <-- LBFGS
 | Parameter |      value      |    tolerance    |    units   | OK? | <-- LBFGS
 +-----------+-----------------+-----------------+------------+-----+ <-- LBFGS
 |  dE/ion   |   6.770988E-003 |   2.000000E-005 |         eV | No  | <-- LBFGS
 |  |F|max   |   1.060318E+000 |   5.000000E-002 |       eV/A | No  | <-- LBFGS
 |  |dR|max  |   6.591466E-002 |   2.000000E-003 |          A | No  | <-- LBFGS
 +-----------+-----------------+-----------------+------------+-----+ <-- LBFGS
  

================================================================================
 Starting LBFGS iteration          2 ...
================================================================================
  
 +------------+-------------+-------------+-----------------+ <-- min LBFGS
 |    Step    |   lambda    |   F.delta'  |    enthalpy     | <-- min LBFGS
 +------------+-------------+-------------+-----------------+ <-- min LBFGS
 |  previous  |    0.000000 |    0.772478 |    -3191.667190 | <-- min LBFGS
 +------------+-------------+-------------+-----------------+ <-- min LBFGS
  

--------------------------------------------------------------------------------
 LBFGS: starting iteration         2 with trial guess (lambda=  1.000000)
--------------------------------------------------------------------------------
 
                           -------------------------------
                                     Cell Contents
                           -------------------------------
 
            xxxxxxxxxxxxxxxxxxxxxxxxxxxxxxxxxxxxxxxxxxxxxxxxxxxxxxxxxxxxxxxxx
            x  Element         Atom        Fractional coordinates of atoms  x
            x                 Number           u          v          w      x
            x---------------------------------------------------------------x
            x  H                 1         0.598449   0.403527   0.541081   x
            x  H                 2         0.619027   0.483895   0.529667   x
            x  H                 3         0.420756   0.429386   0.551056   x
            x  H                 4         0.441520   0.511394   0.539549   x
            x  H                 5         0.671281   0.449592   0.482895   x
            x  H                 6         0.654674   0.369065   0.494987   x
            x  H                 7         0.535986   0.355029   0.451873   x
            x  H                 8         0.661240   0.359522   0.443179   x
            x  H                 9         0.571341   0.421889   0.406704   x
            x  H                10         0.645359   0.475717   0.426843   x
            x  H                11         0.342219   0.430601   0.428903   x
            x  H                12         0.391603   0.563677   0.405585   x
            x  H                13         0.474468   0.575231   0.466600   x
            x  H                14         0.488749   0.392574   0.501205   x
            x  H                15         0.506686   0.471803   0.491046   x
            x  H                16         0.542568   0.444194   0.592427   x
            x  H                17         0.563108   0.525532   0.581054   x
            x  H                18         0.440591   0.521799   0.622256   x
            x  H                19         0.362188   0.469698   0.601441   x
            x  H                20         0.382424   0.552240   0.589925   x
            x  C                 1         0.562735   0.446292   0.531797   x
            x  C                 2         0.475948   0.468809   0.550146   x
            x  C                 3         0.620139   0.408425   0.482382   x
            x  C                 4         0.598232   0.388993   0.450757   x
            x  C                 5         0.580154   0.444171   0.428531   x
            x  C                 6         0.507479   0.486625   0.581898   x
            x  C                 7         0.417526   0.508862   0.599797   x
            x  N                 1         0.544305   0.428596   0.501799   x
            x  O                 1         0.450035   0.544975   0.405431   x
            x  O                 2         0.491223   0.530693   0.466322   x
            x  O                 3         0.378353   0.444706   0.444320   x
            x  Si                1         0.463883   0.493910   0.434394   x
            xxxxxxxxxxxxxxxxxxxxxxxxxxxxxxxxxxxxxxxxxxxxxxxxxxxxxxxxxxxxxxxxx
 
 
------------------------------------------------------------------------ <-- SCF
SCF loop      Energy                           Energy gain       Timer   <-- SCF
                                               per atom          (sec)   <-- SCF
------------------------------------------------------------------------ <-- SCF
Initial  -3.22216489E+003                                        148.85  <-- SCF
      1  -3.18848413E+003                   -1.05252388E+000     149.65  <-- SCF
      2  -3.18975215E+003                    3.96257951E-002     150.84  <-- SCF
      3  -3.18943716E+003                   -9.84340103E-003     151.98  <-- SCF
      4  -3.18954910E+003                    3.49794668E-003     153.07  <-- SCF
      5  -3.18956613E+003                    5.32350787E-004     154.25  <-- SCF
      6  -3.18956696E+003                    2.59404502E-005     155.26  <-- SCF
[...]
 * H              18     -0.00012             -0.00263             -0.00133         *
 * H              19     -0.00002             -0.00321             -0.00101         *
 * H              20     -0.00460              0.00628             -0.00137         *
 * C               1     -0.00977              0.00777              0.00046         *
 * C               2      0.00304             -0.00854              0.00109         *
 * C               3      0.00443              0.00850              0.00386         *
 * C               4     -0.00754              0.00193             -0.00299         *
 * C               5     -0.00673             -0.00678              0.00207         *
 * C               6      0.00186             -0.00364             -0.01014         *
 * C               7      0.00443             -0.00401              0.00784         *
 * N               1      0.00341              0.00242             -0.00285         *
 * O               1     -0.00050              0.00156             -0.00271         *
 * O               2     -0.00337              0.00699             -0.00331         *
 * O               3     -0.00190             -0.00066             -0.00291         *
 * Si              1      0.00084             -0.00012             -0.00009         *
 *                                                                                  *
 ************************************************************************************
 
 Pseudo atomic calculation performed for H 1s1
 
 Converged in 13 iterations to a total energy of -12.4790 eV
 
 Pseudo atomic calculation performed for C 2s2 2p2
 
 Converged in 17 iterations to a total energy of -148.5208 eV
 
 Pseudo atomic calculation performed for N 2s2 2p3
 
 Converged in 21 iterations to a total energy of -268.1820 eV
 
 Pseudo atomic calculation performed for O 2s2 2p4
 
 Converged in 23 iterations to a total energy of -432.6536 eV
 
 Pseudo atomic calculation performed for Si 3s2 3p2
 
 Converged in 11 iterations to a total energy of -165.0683 eV
Charge spilling parameter for spin component 1 = 1.53%
 
            Orbital Populations       
     Ion    Atom   Orbital             Charge
  -------------------------------------------
      H     1      S                    0.695
      H     2      S                    0.694
      H     3      S                    0.732
      H     4      S                    0.737
      H     5      S                    0.693
      H     6      S                    0.688
      H     7      S                    0.731
      H     8      S                    0.682
      H     9      S                    0.691
      H    10      S                    0.708
      H    11      S                    0.458
      H    12      S                    0.453
      H    13      S                    0.456
      H    14      S                    0.522
      H    15      S                    0.569
      H    16      S                    0.724
      H    17      S                    0.729
      H    18      S                    0.699
      H    19      S                    0.729
      H    20      S                    0.737
      C     1      S                    1.297
      C     1      Px                   1.112
      C     1      Py                   1.221
      C     1      Pz                   0.773
      C     2      S                    1.297
      C     2      Px                   1.033
      C     2      Py                   1.174
      C     2      Pz                   1.013
      C     3      S                    1.298
      C     3      Px                   0.926
      C     3      Py                   1.207
      C     3      Pz                   0.979
      C     4      S                    1.304
      C     4      Px                   1.214
      C     4      Py                   1.087
      C     4      Pz                   0.930
      C     5      S                    1.408
      C     5      Px                   1.270
      C     5      Py                   1.148
      C     5      Pz                   1.157
      C     6      S                    1.305
      C     6      Px                   1.086
      C     6      Py                   1.178
      C     6      Pz                   0.943
      C     7      S                    1.399
      C     7      Px                   1.057
      C     7      Py                   1.177
      C     7      Pz                   1.159
      N     1      S                    1.569
      N     1      Px                   1.330
      N     1      Py                   1.431
      N     1      Pz                   1.264
      O     1      S                    1.850
      O     1      Px                   1.690
      O     1      Py                   1.779
      O     1      Pz                   1.766
      O     2      S                    1.849
      O     2      Px                   1.868
      O     2      Py                   1.618
      O     2      Pz                   1.749
      O     3      S                    1.856
      O     3      Px                   1.715
      O     3      Py                   1.757
      O     3      Pz                   1.775
     Si     1      S                    0.741
     Si     1      Px                   0.413
     Si     1      Py                   0.398
     Si     1      Pz                   0.302
  -------------------------------------------
                           Total:      74.000
  -------------------------------------------
 
     Atomic Populations (Mulliken)
     -----------------------------
Species          Ion     s       p       d       f      Total   Charge (e)
==========================================================================
  H               1     0.695   0.000   0.000   0.000   0.695     0.305
  H               2     0.694   0.000   0.000   0.000   0.694     0.306
  H               3     0.732   0.000   0.000   0.000   0.732     0.268
  H               4     0.737   0.000   0.000   0.000   0.737     0.263
  H               5     0.693   0.000   0.000   0.000   0.693     0.307
  H               6     0.688   0.000   0.000   0.000   0.688     0.312
  H               7     0.731   0.000   0.000   0.000   0.731     0.269
  H               8     0.682   0.000   0.000   0.000   0.682     0.318
  H               9     0.691   0.000   0.000   0.000   0.691     0.309
  H              10     0.708   0.000   0.000   0.000   0.708     0.292
  H              11     0.458   0.000   0.000   0.000   0.458     0.542
  H              12     0.453   0.000   0.000   0.000   0.453     0.547
  H              13     0.456   0.000   0.000   0.000   0.456     0.544
  H              14     0.522   0.000   0.000   0.000   0.522     0.478
  H              15     0.569   0.000   0.000   0.000   0.569     0.431
  H              16     0.724   0.000   0.000   0.000   0.724     0.276
  H              17     0.729   0.000   0.000   0.000   0.729     0.271
  H              18     0.699   0.000   0.000   0.000   0.699     0.301
  H              19     0.729   0.000   0.000   0.000   0.729     0.271
  H              20     0.737   0.000   0.000   0.000   0.737     0.263
  C               1     1.297   3.107   0.000   0.000   4.403    -0.403
  C               2     1.297   3.221   0.000   0.000   4.517    -0.517
  C               3     1.298   3.112   0.000   0.000   4.411    -0.411
  C               4     1.304   3.230   0.000   0.000   4.534    -0.534
  C               5     1.408   3.575   0.000   0.000   4.984    -0.984
  C               6     1.305   3.207   0.000   0.000   4.512    -0.512
  C               7     1.399   3.393   0.000   0.000   4.792    -0.792
  N               1     1.569   4.024   0.000   0.000   5.593    -0.593
  O               1     1.850   5.235   0.000   0.000   7.085    -1.085
  O               2     1.849   5.236   0.000   0.000   7.084    -1.084
  O               3     1.856   5.247   0.000   0.000   7.103    -1.103
  Si              1     0.741   1.113   0.000   0.000   1.854     2.146
==========================================================================
 
                 Bond                   Population      Length (A)
======================================================================
              H 12 -- O 1                    0.53        0.96817
              H 11 -- O 3                    0.53        0.96934
              H 13 -- O 2                    0.52        0.96996
              H 14 -- N 1                    0.68        1.02745
              H 15 -- N 1                    0.65        1.05318
              H 6  -- C 3                    0.86        1.09721
              H 1  -- C 1                    0.86        1.09750
              H 18 -- C 7                    0.81        1.09763
              H 2  -- C 1                    0.85        1.09876
              H 5  -- C 3                    0.85        1.09900
              H 19 -- C 7                    0.81        1.09924
              H 8  -- C 4                    0.84        1.10004
              H 20 -- C 7                    0.81        1.10037
              H 17 -- C 6                    0.84        1.10160
              H 9  -- C 5                    0.81        1.10186
              H 16 -- C 6                    0.84        1.10219
              H 7  -- C 4                    0.84        1.10242
              H 10 -- C 5                    0.81        1.10247
              H 4  -- C 2                    0.85        1.10260
              H 3  -- C 2                    0.84        1.10265
               C 3 -- N 1                    0.52        1.50630
               C 1 -- N 1                    0.52        1.50697
               C 1 -- C 2                    0.71        1.51957
               C 3 -- C 4                    0.70        1.52580
               C 6 -- C 7                    0.65        1.52834
               C 2 -- C 6                    0.68        1.53391
               C 4 -- C 5                    0.65        1.54178
               O 1 -- Si 1                   0.54        1.62826
               O 3 -- Si 1                   0.49        1.65563
              H 14 -- H 15                  -0.10        1.67687
               O 2 -- Si 1                   0.43        1.68104
              H 15 -- O 2                    0.10        1.74084
              H 7  -- H 8                   -0.11        1.75391
              H 9  -- H 10                  -0.09        1.75433
              H 16 -- H 17                  -0.12        1.76375
              H 18 -- H 19                  -0.10        1.77228
              H 3  -- H 4                   -0.12        1.77361
              H 18 -- H 20                  -0.10        1.77788
              H 19 -- H 20                  -0.11        1.77843
              H 1  -- H 2                   -0.11        1.77934
              H 5  -- H 6                   -0.11        1.78437
               C 5 -- Si 1                   0.63        1.86542
              H 15 -- C 3                   -0.12        2.08856
              H 15 -- C 1                   -0.12        2.09078
              H 14 -- C 3                   -0.12        2.09127
              H 5  -- N 1                   -0.11        2.09203
              H 2  -- N 1                   -0.11        2.09318
              H 6  -- N 1                   -0.12        2.09387
              H 14 -- C 1                   -0.12        2.09515
              H 1  -- N 1                   -0.11        2.10862
              H 8  -- C 3                   -0.14        2.11062
              H 9  -- C 4                   -0.11        2.15539
              H 7  -- C 3                   -0.13        2.15715
              H 3  -- C 1                   -0.14        2.16019
              H 4  -- C 1                   -0.14        2.16090
              H 4  -- C 6                   -0.12        2.16190
              H 17 -- C 2                   -0.13        2.16191
              H 3  -- C 6                   -0.12        2.16391
              H 8  -- C 5                   -0.14        2.16503
              H 17 -- C 7                   -0.13        2.16621
              H 16 -- C 2                   -0.13        2.16706
              H 16 -- C 7                   -0.13        2.17181
              H 6  -- C 4                   -0.13        2.17591
              H 2  -- C 2                   -0.12        2.17670
              H 20 -- C 6                   -0.12        2.17677
              H 1  -- C 2                   -0.12        2.17888
              H 18 -- C 6                   -0.11        2.18086
              H 5  -- C 4                   -0.12        2.18114
              H 10 -- C 4                   -0.11        2.18235
              H 19 -- C 6                   -0.12        2.18240
              H 7  -- C 5                   -0.13        2.18654
              H 11 -- Si 1                  -0.12        2.28571
              H 12 -- Si 1                  -0.13        2.31178
              H 13 -- Si 1                  -0.12        2.31877
              H 6  -- H 8                   -0.05        2.33289
              H 5  -- H 15                  -0.04        2.34861
              H 1  -- H 6                   -0.02        2.36396
              H 2  -- H 15                  -0.04        2.37656
              H 7  -- H 14                  -0.01        2.41432
              H 9  -- Si 1                  -0.13        2.42074
              H 8  -- H 9                   -0.05        2.42410
              H 13 -- H 15                  -0.01        2.44090
              H 2  -- H 5                   -0.02        2.44464
              H 1  -- H 14                  -0.03        2.44839
              H 6  -- H 14                  -0.03        2.45472
              H 10 -- Si 1                  -0.12        2.45640
              H 17 -- H 18                  -0.03        2.49017
              H 4  -- H 15                  -0.01        2.50312
              H 1  -- H 3                   -0.04        2.50858
              H 4  -- H 17                  -0.03        2.50948
               C 2 -- N 1                   -0.13        2.51268
               C 1 -- C 3                   -0.15        2.51425
              H 3  -- H 16                  -0.03        2.51525
              H 7  -- H 9                   -0.02        2.51549
              H 16 -- H 19                  -0.03        2.51676
              H 8  -- H 10                  -0.03        2.51732
              H 4  -- H 20                  -0.01        2.52215
               C 1 -- C 6                   -0.15        2.52355
               C 2 -- C 7                   -0.16        2.53346
              H 16 -- H 18                  -0.03        2.53672
              H 2  -- H 17                  -0.01        2.53753
              H 2  -- H 4                   -0.03        2.53772
               C 4 -- N 1                   -0.12        2.53782
              H 17 -- H 20                  -0.03        2.54569
              H 3  -- H 14                  -0.00        2.55040
              H 5  -- H 10                  -0.01        2.57025
              H 6  -- H 7                   -0.01        2.59334
              H 1  -- H 16                  -0.01        2.59615
               O 2 -- O 3                   -0.08        2.60094
               C 3 -- C 5                   -0.15        2.60374
              H 5  -- H 8                   -0.01        2.60546
              H 3  -- H 19                  -0.01        2.60708
              H 6  -- C 1                   -0.05        2.64996
              H 15 -- Si 1                  -0.05        2.65328
              H 7  -- N 1                   -0.04        2.68754
              H 1  -- C 3                   -0.04        2.69636
              H 2  -- C 3                   -0.04        2.69643
              H 14 -- C 4                   -0.04        2.70005
              H 14 -- C 2                   -0.03        2.70648
              H 15 -- C 2                   -0.03        2.72501
              H 5  -- C 1                   -0.03        2.72642
              H 4  -- N 1                   -0.03        2.73231
              H 17 -- C 1                   -0.04        2.74282
              H 4  -- C 7                   -0.04        2.75106
               N 1 -- O 2                   -0.12        2.75144
              H 16 -- C 1                   -0.04        2.75165
              H 5  -- C 5                   -0.05        2.75328
              H 3  -- C 7                   -0.04        2.76224
              H 20 -- C 2                   -0.04        2.76337
               O 1 -- O 2                   -0.06        2.76388
               O 1 -- O 3                   -0.07        2.77033
              H 2  -- C 6                   -0.04        2.77572
              H 3  -- N 1                   -0.02        2.78370
              H 15 -- C 4                   -0.02        2.78650
               C 5 -- O 2                   -0.11        2.80949
              H 1  -- C 6                   -0.03        2.81916
              H 19 -- C 2                   -0.03        2.82862
              H 10 -- C 3                   -0.04        2.85305
               C 5 -- O 1                   -0.09        2.85317
              H 15 -- O 3                   -0.01        2.87393
               C 4 -- Si 1                  -0.13        2.91019
               C 5 -- O 3                   -0.10        2.91348
              H 2  -- H 6                   -0.00        2.93753
              H 5  -- H 14                   0.03        2.95340
              H 2  -- H 14                   0.03        2.95810
              H 6  -- H 15                   0.03        2.96120
              H 9  -- O 1                   -0.01        2.96369
              H 13 -- O 1                   -0.01        2.96942
              H 1  -- H 15                   0.03        2.97542
              H 7  -- O 3                    0.00        2.97717
              H 4  -- H 14                  -0.00        2.99138
              H 10 -- O 2                   -0.01        2.99764
======================================================================
 
 
     Hirshfeld Analysis
     ------------------
Species   Ion     Hirshfeld Charge (e)
======================================
  H        1                 0.06
  H        2                 0.06
  H        3                 0.05
  H        4                 0.04
  H        5                 0.07
  H        6                 0.07
  H        7                 0.05
  H        8                 0.06
  H        9                 0.06
  H       10                 0.05
  H       11                 0.18
  H       12                 0.19
  H       13                 0.19
  H       14                 0.17
  H       15                 0.11
  H       16                 0.05
  H       17                 0.04
  H       18                 0.05
  H       19                 0.04
  H       20                 0.04
  C        1                 0.01
  C        2                -0.06
  C        3                 0.01
  C        4                -0.05
  C        5                -0.15
  C        6                -0.05
  C        7                -0.10
  N        1                 0.02
  O        1                -0.27
  O        2                -0.24
  O        3                -0.29
  Si       1                 0.48
======================================
 

Writing analysis data to Conf_0006.castep_bin

Writing model to Conf_0006.check
 
 A BibTeX formatted list of references used in this run has been written to 
 Conf_0006.bib
 
Initialisation time =     24.93 s
Calculation time    =   1043.75 s
Finalisation time   =      1.11 s
Total time          =   1069.78 s
Peak Memory Use     = 7919388 kB
 
Overall parallel efficiency rating: Satisfactory (67%)
 
Data was distributed by:-
G-vector (48-way); efficiency rating: Satisfactory (67%)
High Water Mark     = 1780664 kB
