 Job started on host drago31020072.mgmt.cc.csic.es
 at Sun Mar 31 00:50:16 2024

 +-------------------------------------------------+
 |                                                 |
 |      CCC   AA    SSS  TTTTT  EEEEE  PPPP        |
 |     C     A  A  S       T    E      P   P       |
 |     C     AAAA   SS     T    EEE    PPPP        |
 |     C     A  A     S    T    E      P           |
 |      CCC  A  A  SSS     T    EEEEE  P           |
 |                                                 |
 +-------------------------------------------------+
 |                                                 |
 | Materials Studio CASTEP version 2024            |
 | Ab Initio Total Energy Program                  |
 |                                                 |
 | Authors:                                        |
 | M. Segall, M. Probert, C. Pickard, P. Hasnip,   |
 | S. Clark, K. Refson, J. R. Yates,               |
 | A. Bartok-Partay, M. Payne                      |
 |                                                 |
 | Contributors:                                   |
 | P. Lindan, P. Haynes, J. White, V. Milman,      |
 | N. Govind, M. Gibson, P. Tulip, V. Cocula,      |
 | B. Montanari, D. Quigley, M. Glover,            |
 | L. Bernasconi, A. Perlov, M. Plummer,           |
 | E. McNellis, J. Meyer, J. Gale, D. Jochym       |
 | J. Aarons, B. Walker, R. Gillen, D. Jones       |
 | T. Green, I. J. Bush, C. J. Armstrong,          |
 | E. J. Higgins, E. L. Brown, M. S. McFly,        |
 | J. Wilkins, B-C. Shih, P. J. P. Byrne,          |
 | R. J. Maurer, J. C. Womack, J. Dziedzic,        |
 | L. LeBlanc, T. K. Stenczel, J. Kermode,         |
 | S. Sturniolo, B. Shi, B. Durham, M. Evans,      |
 | M. J. Smith, A. Tamerus, Z. Hawkhead,           |
 | V. Ravindran, T. Hollins, S. A. Joyce,          |
 | R. T. Strong, A. M. Reilly                      |
 |                                                 |
 | Copyright (c) 2000 - 2023                       |
 |                                                 |
 | Please cite                                     |
 |                                                 |
 |     "First principles methods using CASTEP"     |
 |                                                 |
 |         Zeitschrift fuer Kristallographie       |
 |           220(5-6) pp. 567-570 (2005)           |
 |                                                 |
 | S. J. Clark, M. D. Segall, C. J. Pickard,       |
 | P. J. Hasnip, M. J. Probert, K. Refson,         |
 | M. C. Payne                                     |
 |                                                 |
 |       in all publications arising from          |
 |              your use of CASTEP                 |
 |                                                 |
 +-------------------------------------------------+
 |                                                 |
 |              http://www.castep.org              |
 |                                                 |
 +-------------------------------------------------+
 
 
 This version was compiled for x86_64-rhel7-intel19.0 on Oct 24 2023
 Code version:    a9f326b
 Intel(R) Math Kernel Library Version 2019.0.4 
 Fundamental constants values: CODATA 2018
 
License checkout of MS_castep successful
 
 
 Atomic calculation performed for H: 1s1
 
 Converged in 41 iterations to an ae energy of -12.488 eV
 
 Identity difference: 2.63E-05
 
   ============================================================                
   | Pseudopotential Report - Date of generation 31-03-2024   |                
   ------------------------------------------------------------                
   | Element: H Ionic charge:  1.00 Level of theory: PBE      |                
   | Atomic Solver: Koelling-Harmon                           |                
   |                                                          |                
   |               Reference Electronic Structure             |                
   |         Orbital         Occupation         Energy        |                
   |            1s              1.000           -0.239        |                
   |                                                          |                
   |                 Pseudopotential Definition               |                
   |        Beta     l      e      Rc     scheme   norm       |                
   |          1      0   -0.239   0.599     qc      0         |                
   |          2      0    0.250   0.599     qc      0         |                
   |         loc     1    0.000   0.599     pn      0         |                
   |                                                          |                
   | Augmentation charge Rinner = 0.421                       |                
   | No partial core correction                               |                
   ------------------------------------------------------------                
   | "1|0.6|9|10|15|10UU(qc=8)[]"                             |                
   ------------------------------------------------------------                
   |      Author: Chris J. Pickard, Cambridge University      |                
   ============================================================                
 
 Doing a self consistent calculation for the test configuration
 
 Atomic calculation performed for H: 1s1
 
 Converged in 41 iterations to an ae energy of -12.488 eV
 
 ---------------------------------------
 AE eigenvalue nl 10 =       -0.23860176
 ---------------------------------------
 PS eigenvalue nl 10 =       -0.23857601
 ---------------------------------------
 Maximum eigenvalue error:   2.57E-05
 
 Derived cutoff energies: C=   1 M=   6 F=  10 E=  20
 
 Checking for ghost states up to   1.51185 Ha
 
 No Ghost States Identified
 
 ***************************************
 
 Atomic calculation performed for C: 1s2 2s2 2p2
 
 Converged in 54 iterations to an ae energy of -1027.632 eV
 
 Identity difference: 2.37E-04
 
   ============================================================                
   | Pseudopotential Report - Date of generation 31-03-2024   |                
   ------------------------------------------------------------                
   | Element: C Ionic charge:  4.00 Level of theory: PBE      |                
   | Atomic Solver: Koelling-Harmon                           |                
   |                                                          |                
   |               Reference Electronic Structure             |                
   |         Orbital         Occupation         Energy        |                
   |            2s              2.000           -0.505        |                
   |            2p              2.000           -0.194        |                
   |                                                          |                
   |                 Pseudopotential Definition               |                
   |        Beta     l      e      Rc     scheme   norm       |                
   |          1      0   -0.505   1.395     qc      0         |                
   |          2      0    0.250   1.395     qc      0         |                
   |          3      1   -0.194   1.395     qc      0         |                
   |          4      1    0.250   1.395     qc      0         |                
   |         loc     2    0.000   1.395     pn      0         |                
   |                                                          |                
   | Augmentation charge Rinner = 0.983                       |                
   | Partial core correction Rc = 0.983                       |                
   ------------------------------------------------------------                
   | "2|1.4|11|12|14.7|20UU:21UU(qc=7)[]"                     |                
   ------------------------------------------------------------                
   |      Author: Chris J. Pickard, Cambridge University      |                
   ============================================================                
 
 Doing a self consistent calculation for the test configuration
 
 Atomic calculation performed for C: 1s2 2s2 2p2
 
 Converged in 54 iterations to an ae energy of -1027.632 eV
 
 ---------------------------------------
 AE eigenvalue nl 10 =      -10.04653081
 AE eigenvalue nl 20 =       -0.50533429
 AE eigenvalue nl 21 =       -0.19423807
 ---------------------------------------
 PS eigenvalue nl 20 =       -0.50531853
 PS eigenvalue nl 21 =       -0.19422214
 ---------------------------------------
 Maximum eigenvalue error:   1.59E-05
 
 Derived cutoff energies: C=   6 M=  10 F=  12 E=  16
 
 Checking for ghost states up to   1.47183 Ha
 
 No Ghost States Identified
 
 ***************************************
 
 Atomic calculation performed for N: 1s2 2s2 2p3
 
 Converged in 55 iterations to an ae energy of -1481.742 eV
 
 Identity difference: 2.27E-04
 
   ============================================================                
   | Pseudopotential Report - Date of generation 31-03-2024   |                
   ------------------------------------------------------------                
   | Element: N Ionic charge:  5.00 Level of theory: PBE      |                
   | Atomic Solver: Koelling-Harmon                           |                
   |                                                          |                
   |               Reference Electronic Structure             |                
   |         Orbital         Occupation         Energy        |                
   |            2s              2.000           -0.683        |                
   |            2p              3.000           -0.261        |                
   |                                                          |                
   |                 Pseudopotential Definition               |                
   |        Beta     l      e      Rc     scheme   norm       |                
   |          1      0   -0.683   1.100     qc      0         |                
   |          2      0    0.250   1.100     qc      0         |                
   |          3      1   -0.261   1.100     qc      0         |                
   |          4      1    0.250   1.100     qc      0         |                
   |         loc     2    0.000   1.100     pn      0         |                
   |                                                          |                
   | Augmentation charge Rinner = 0.769                       |                
   | Partial core correction Rc = 0.769                       |                
   ------------------------------------------------------------                
   | "2|1.1|12|16|19|20UU:21UU(qc=7)[]"                       |                
   ------------------------------------------------------------                
   |      Author: Chris J. Pickard, Cambridge University      |                
   ============================================================                
 
 Doing a self consistent calculation for the test configuration
 
 Atomic calculation performed for N: 1s2 2s2 2p3
 
 Converged in 55 iterations to an ae energy of -1481.742 eV
 
 ---------------------------------------
 AE eigenvalue nl 10 =      -14.13820921
 AE eigenvalue nl 20 =       -0.68290611
 AE eigenvalue nl 21 =       -0.26054797
 ---------------------------------------
 PS eigenvalue nl 20 =       -0.68291221
 PS eigenvalue nl 21 =       -0.26051708
 ---------------------------------------
 Maximum eigenvalue error:   3.09E-05
 
 Derived cutoff energies: C=  10 M=  15 F=  18 E=  23
 
 Checking for ghost states up to   1.48495 Ha
 
 No Ghost States Identified
 
 ***************************************
 
 Atomic calculation performed for O: 1s2 2s2 2p4
 
 Converged in 61 iterations to an ae energy of -2040.902 eV
 
 Identity difference: 4.10E-04
 
   ============================================================                
   | Pseudopotential Report - Date of generation 31-03-2024   |                
   ------------------------------------------------------------                
   | Element: O Ionic charge:  6.00 Level of theory: PBE      |                
   | Atomic Solver: Koelling-Harmon                           |                
   |                                                          |                
   |               Reference Electronic Structure             |                
   |         Orbital         Occupation         Energy        |                
   |            2s              2.000           -0.881        |                
   |            2p              4.000           -0.332        |                
   |                                                          |                
   |                 Pseudopotential Definition               |                
   |        Beta     l      e      Rc     scheme   norm       |                
   |          1      0   -0.881   1.100     qc      0         |                
   |          2      0    0.250   1.100     qc      0         |                
   |          3      1   -0.332   1.100     qc      0         |                
   |          4      1    0.250   1.100     qc      0         |                
   |         loc     2    0.000   1.100     pn      0         |                
   |                                                          |                
   | Augmentation charge Rinner = 0.769                       |                
   | Partial core correction Rc = 0.769                       |                
   ------------------------------------------------------------                
   | "2|1.1|14|18|21|20UU:21UU(qc=7)[]"                       |                
   ------------------------------------------------------------                
   |      Author: Chris J. Pickard, Cambridge University      |                
   ============================================================                
 
 Doing a self consistent calculation for the test configuration
 
 Atomic calculation performed for O: 1s2 2s2 2p4
 
 Converged in 61 iterations to an ae energy of -2040.902 eV
 
 ---------------------------------------
 AE eigenvalue nl 10 =      -18.91475256
 AE eigenvalue nl 20 =       -0.88057101
 AE eigenvalue nl 21 =       -0.33186952
 ---------------------------------------
 PS eigenvalue nl 20 =       -0.88059206
 PS eigenvalue nl 21 =       -0.33182157
 ---------------------------------------
 Maximum eigenvalue error:   4.80E-05
 
 Derived cutoff energies: C=  14 M=  17 F=  20 E=  22
 
 Checking for ghost states up to   1.49452 Ha
 
 No Ghost States Identified
 
 ***************************************
 
 Atomic calculation performed for Si: 1s2 2s2 2p6 3s2 3p2
 
 Converged in 54 iterations to an ae energy of -7886.857 eV
 
 Identity difference: 1.35E-04
 
   ============================================================                
   | Pseudopotential Report - Date of generation 31-03-2024   |                
   ------------------------------------------------------------                
   | Element: Si Ionic charge:  4.00 Level of theory: PBE     |                
   | Atomic Solver: Koelling-Harmon                           |                
   |                                                          |                
   |               Reference Electronic Structure             |                
   |         Orbital         Occupation         Energy        |                
   |            3s              2.000           -0.397        |                
   |            3p              2.000           -0.150        |                
   |                                                          |                
   |                 Pseudopotential Definition               |                
   |        Beta     l      e      Rc     scheme   norm       |                
   |          1      0   -0.397   1.797     qc      0         |                
   |          2      0    0.250   1.797     qc      0         |                
   |          3      1   -0.150   1.797     qc      0         |                
   |          4      1    0.250   1.797     qc      0         |                
   |          5      2    0.000   1.797     qc      0         |                
   |          6      2    0.250   1.797     qc      0         |                
   |         loc     3    0.000   1.797     pn      0         |                
   |                                                          |                
   | Augmentation charge Rinner = 1.255                       |                
   | Partial core correction Rc = 1.255                       |                
   ------------------------------------------------------------                
   | "3|1.8|3.6|5|7|30UU:31UU:32UU[]"                         |                
   ------------------------------------------------------------                
   |      Author: Chris J. Pickard, Cambridge University      |                
   ============================================================                
 
 Doing a self consistent calculation for the test configuration
 
 Atomic calculation performed for Si: 1s2 2s2 2p6 3s2 3p2
 
 Converged in 54 iterations to an ae energy of -7886.857 eV
 
 ---------------------------------------
 AE eigenvalue nl 10 =      -65.63192903
 AE eigenvalue nl 20 =       -5.12654326
 AE eigenvalue nl 21 =       -3.51173659
 AE eigenvalue nl 30 =       -0.39736430
 AE eigenvalue nl 31 =       -0.14998156
 ---------------------------------------
 PS eigenvalue nl 30 =       -0.39734922
 PS eigenvalue nl 31 =       -0.14996719
 ---------------------------------------
 Maximum eigenvalue error:   1.51E-05
 
 Derived cutoff energies: C=   1 M=   3 F=   6 E=   6
 
 Checking for ghost states up to   1.41161 Ha
 
 No Ghost States Identified
 
 ***************************************
 
 Pseudo atomic calculation performed for H 1s1
 
 Converged in 13 iterations to a total energy of -12.4790 eV
 
 Pseudo atomic calculation performed for C 2s2 2p2
 
 Converged in 17 iterations to a total energy of -148.5208 eV
 
 Pseudo atomic calculation performed for N 2s2 2p3
 
 Converged in 21 iterations to a total energy of -268.1820 eV
 
 Pseudo atomic calculation performed for O 2s2 2p4
 
 Converged in 23 iterations to a total energy of -432.6536 eV
 
 Pseudo atomic calculation performed for Si 3s2 3p2
 
 Converged in 11 iterations to a total energy of -165.0683 eV
 Calculation parallelised over 48 processes.
 Data is distributed by G-vector(48-way)

 ************************************ Title ************************************
 CASTEP calculation from BIOVIA Materials Studio 2024

 ***************************** General Parameters ******************************
  
 output verbosity                               : normal  (1)
 write checkpoint data to                       : Conf_0001.check
 type of calculation                            : geometry optimization
 stress calculation                             : off
 density difference calculation                 : off
 electron localisation func (ELF) calculation   : off
 Hirshfeld analysis                             : on
 polarisation (Berry phase) analysis            : off
 molecular orbital projected DOS                : off
 deltaSCF calculation                           : off
 unlimited duration calculation
 timing information                             : on
 memory usage estimate                          : on
 write extra output files                       : on
 write final potential to formatted file        : off
 write final density to formatted file          : off
 write BibTeX reference list                    : on
 write OTFG pseudopotential files               : on
 write electrostatic potential file             : on
 write bands file                               : on
 checkpoint writing                             : both castep_bin and check files
  
 output         length unit                     : A
 output           mass unit                     : amu
 output           time unit                     : ps
 output         charge unit                     : e
 output           spin unit                     : hbar/2
 output         energy unit                     : eV
 output          force unit                     : eV/A
 output       velocity unit                     : A/ps
 output       pressure unit                     : GPa
 output     inv_length unit                     : 1/A
 output      frequency unit                     : cm-1
 output force constant unit                     : eV/A**2
 output         volume unit                     : A**3
 output   IR intensity unit                     : (D/A)**2/amu
 output         dipole unit                     : D
 output         efield unit                     : eV/A/e
 output        entropy unit                     : J/mol/K
 output    efield chi2 unit                     : pm/V
  
 wavefunctions paging                           : none
 random number generator seed                   :    5024762
 data distribution                              : optimal for this architecture
 optimization strategy                          : balance speed and memory

 *********************** Exchange-Correlation Parameters ***********************
  
 using functional                               : Perdew Burke Ernzerhof
 relativistic treatment                         : Koelling-Harmon
 DFT+D: Semi-empirical dispersion correction    : on
 SEDC with                                      : G06 correction scheme

 ************************* Pseudopotential Parameters **************************
  
 pseudopotential representation                 : reciprocal space
 <beta|phi> representation                      : reciprocal space
 spin-orbit coupling                            : off

 **************************** Basis Set Parameters *****************************
  
 plane wave basis set cut-off                   :   600.0000   eV
 size of standard grid                          :     1.5000
 size of   fine   gmax                          :    18.8237   1/A
 largest prime factor in FFT                    :          5
 finite basis set correction                    : none

 **************************** Electronic Parameters ****************************
  
 number of  electrons                           :  74.00    
 net charge of system                           : +1.000    
 treating system as non-spin-polarized
 number of bands                                :         37

 ********************* Electronic Minimization Parameters **********************
  
 Method: Treating system as non-metallic,
         and number of  SD  steps               :          1
         and number of  CG  steps               :          4
  
 total energy / atom convergence tol.           : 0.2000E-05   eV
 eigen-energy convergence tolerance             : 0.1000E-05   eV
 max force / atom convergence tol.              : ignored
 convergence tolerance window                   :          3   cycles
 max. number of SCF cycles                      :        100
 periodic dipole correction                     : NONE

 ************************** Density Mixing Parameters **************************
  
 density-mixing scheme                          : Pulay
 max. length of mixing history                  :         20
 charge density mixing amplitude                : 0.5000    
 cut-off energy for mixing                      :  600.0       eV
 charge density mixing g-vector                 :  1.500       1/A

 *********************** Population Analysis Parameters ************************
  
 Population analysis with cutoff                :  3.000       A
 Population analysis output                     : summary and pdos components

 ********************** Geometry Optimization Parameters ***********************
  
 optimization method                            : LBFGS
 max. no. of LBFGS updates                      : unbounded
 preconditioned LBFGS is activated
 preconditioner type                            : EXP
     stabilization constant                     :     0.1000
     parameter A                                :     3.0000
     nearest neighbor distance                  : automatic
     cut-off distance                           : automatic
     parameter mu                               : automatic
 variable cell method                           : fixed basis quality
 max. number of steps                           :        300
 estimated bulk modulus                         :  500.0       GPa
 estimated <frequency>                          :  1668.       cm-1
 geom line minimiser                            : on
 with line minimiser tolerance                  :     0.4000
 total energy convergence tolerance             : 0.2000E-04   eV/atom
        max ionic |force| tolerance             : 0.5000E-01   eV/A
 max ionic |displacement| tolerance             : 0.2000E-02   A
   max |stress component| tolerance             : 0.1000       GPa
 convergence tolerance window                   :          2   steps
 backup results every                           :          5   steps
 write geom trajectory file                     : on

 *******************************************************************************
  
 
                           -------------------------------
                                      Unit Cell
                           -------------------------------
        Real Lattice(A)                      Reciprocal Lattice(1/A)
    13.4840002    -0.0000006    -0.0000006        0.465973392   0.000000000   0.000000000
     0.0000000    20.4006996    -0.0000009        0.000000013   0.307988717   0.000000000
     0.0000000     0.0000000    45.0000000        0.000000006   0.000000006   0.139626340
 
                       Lattice parameters(A)       Cell Angles
                    a =     13.484000          alpha =   90.000003
                    b =     20.400700          beta  =   90.000003
                    c =     45.000000          gamma =   90.000003
 
                       Current cell volume =         12378.736702       A**3
                                   density =             0.015698   AMU/A**3
                                           =             0.026068     g/cm^3
 
                           -------------------------------
                                     Cell Contents
                           -------------------------------
                         Total number of ions in cell =   32
                      Total number of species in cell =    5
                        Max number of any one species =   20
 
            xxxxxxxxxxxxxxxxxxxxxxxxxxxxxxxxxxxxxxxxxxxxxxxxxxxxxxxxxxxx
            x  Element    Atom        Fractional coordinates of atoms  x
            x            Number           u          v          w      x
            x----------------------------------------------------------x
            x  H            1         0.461636   0.383609   0.537419   x 
            x  H            2         0.541836   0.431667   0.514184   x 
            x  H            3         0.392806   0.487968   0.559742   x 
            x  H            4         0.471315   0.535176   0.536323   x 
            x  H            5         0.377166   0.336548   0.493386   x 
            x  H            6         0.318262   0.389627   0.467340   x 
            x  H            7         0.467372   0.330288   0.448682   x 
            x  H            8         0.546292   0.372576   0.472997   x 
            x  H            9         0.420566   0.435161   0.422853   x 
            x  H           10         0.548025   0.416496   0.420893   x 
            x  H           11         0.412041   0.589777   0.466740   x 
            x  H           12         0.604061   0.563842   0.412481   x 
            x  H           13         0.658331   0.547841   0.475724   x 
            x  H           14         0.320581   0.438615   0.513893   x 
            x  H           15         0.393981   0.481087   0.492231   x 
            x  H           16         0.542976   0.438696   0.584299   x 
            x  H           17         0.620980   0.485887   0.560926   x 
            x  H           18         0.601605   0.539387   0.610623   x 
            x  H           19         0.470755   0.542465   0.605852   x 
            x  H           20         0.549581   0.589823   0.582407   x 
            x  C            1         0.470901   0.431401   0.526326   x 
            x  C            2         0.465349   0.488169   0.548366   x 
            x  C            3         0.385994   0.382577   0.480763   x 
            x  C            4         0.476737   0.377746   0.460296   x 
            x  C            5         0.488763   0.431970   0.436347   x 
            x  C            6         0.547642   0.485346   0.571893   x 
            x  C            7         0.542072   0.542353   0.593880   x 
            x  N            1         0.386237   0.437907   0.503086   x 
            x  O            1         0.549629   0.570275   0.425514   x 
            x  O            2         0.614172   0.511695   0.474258   x 
            x  O            3         0.426937   0.544584   0.469707   x 
            x  Si           1         0.522060   0.516688   0.450870   x 
            xxxxxxxxxxxxxxxxxxxxxxxxxxxxxxxxxxxxxxxxxxxxxxxxxxxxxxxxxxxx
 
 
                         No user defined ionic velocities
 
                           -------------------------------
                                   Details of Species
                           -------------------------------
 
                               Mass of species in AMU
                                    H    1.0080000
                                    C   12.0109997
                                    N   14.0070000
                                    O   15.9989996
                                    Si   28.0849991
 
                          Electric Quadrupole Moment (Barn)
                                    H    0.0028600 Isotope  2
                                    C    0.0332700 Isotope 11
                                    N    0.0204400 Isotope 14
                                    O   -0.0255800 Isotope 17
                                    Si    1.0000000 No Isotope Defined
 
                          Files used for pseudopotentials:
                                    H 1|0.6|9|10|15|10UU(qc=8)[]
                                    C 2|1.4|11|12|14.7|20UU:21UU(qc=7)[]
                                    N 2|1.1|12|16|19|20UU:21UU(qc=7)[]
                                    O 2|1.1|14|18|21|20UU:21UU(qc=7)[]
                                    Si 3|1.8|3.6|5|7|30UU:31UU:32UU[]
 
                           -------------------------------
                              k-Points For BZ Sampling
                           -------------------------------
                       MP grid size for SCF calculation is  1  1  1
                            with an offset of   0.000  0.000  0.000
                       Number of kpoints used =             1
 
                           -------------------------------
                               Symmetry and Constraints
                           -------------------------------
 
                      Maximum deviation from symmetry =  0.00000         ANG
 
                      Number of symmetry operations   =           1
                      Number of nonlinear constraints =           3
         There are no ionic constraints specified or generated for this cell
                      Point group of crystal =     1: C1, 1, 1
                      Space group of crystal =     1: P1, P 1
 
             Set iprint > 1 for details on symmetry rotations/translations
 
                         Centre of mass is NOT constrained
 
                         Number of cell constraints= 6
                         Cell constraints are:  0 0 0 0 0 0
 
                         External pressure/stress (GPa)
                          0.00000   0.00000   0.00000
                                    0.00000   0.00000
                                              0.00000
 
                                --------------------
                                  DFT-D parameters
                                --------------------
 
                          Dispersion-correction scheme : G06       
                        Parameter s6 :   0.750000 (default)
                        Parameter d  :  20.000000 (default)
 
        xxxxxxxxxxxxxxxxxxxxxxxxxxxxxxxxxxxxxxxxxxxxxxxxxxxxxxxxxxxxxxxxxxxx
        x              Atomic DFT-D parameters                             x
        x  Species      C6            R0                                   x
        x               eV A^6        Ang                                  x
        x------------------------------------------------------------------x
        x  H             1.4510       1.0010   (default)                   x
        x  C            18.1375       1.4520   (default)                   x
        x  N            12.7481       1.3970   (default)                   x
        x  O             7.2550       1.3420   (default)                   x
        x  Si           95.6622       1.7160   (default)                   x
        xxxxxxxxxxxxxxxxxxxxxxxxxxxxxxxxxxxxxxxxxxxxxxxxxxxxxxxxxxxxxxxxxxxx
 
 
+---------------- MEMORY AND SCRATCH DISK ESTIMATES PER PROCESS --------------+
|                                                     Memory          Disk    |
| Baseline code, static data and system overhead     6530.0 MB         0.0 MB |
| BLAS internal memory storage                          0.0 MB         0.0 MB |
| Model and support data                              540.6 MB         0.0 MB |
| Electronic energy minimisation requirements          31.8 MB         0.0 MB |
| Force calculation requirements                        6.8 MB         0.0 MB |
|                                               ----------------------------- |
| Approx. total storage required per process         7102.3 MB         0.0 MB |
|                                                                             |
| Requirements will fluctuate during execution and may exceed these estimates |
+-----------------------------------------------------------------------------+
Calculating approximate eigenstates for fixed initial Hamiltonian
Cut-off for approx. calculation is  119.774 eV
Improving approx. states at cut-off of  300.000 eV
Resetting cut-off to  600.000 eV
Calculating total energy with cut-off of  600.000 eV.
------------------------------------------------------------------------ <-- SCF
SCF loop      Energy                           Energy gain       Timer   <-- SCF
                                               per atom          (sec)   <-- SCF
------------------------------------------------------------------------ <-- SCF
Initial  -2.93470864E+003                                         30.97  <-- SCF
      1  -3.20285368E+003                    8.37953245E+000      31.77  <-- SCF
      2  -3.20316044E+003                    9.58610797E-003      32.67  <-- SCF
      3  -3.19301469E+003                   -3.17054773E-001      33.72  <-- SCF
      4  -3.19188466E+003                   -3.53133926E-002      34.88  <-- SCF
      5  -3.19136298E+003                   -1.63025358E-002      35.88  <-- SCF
      6  -3.19128976E+003                   -2.28793694E-003      37.16  <-- SCF
      7  -3.19124477E+003                   -1.40604739E-003      38.17  <-- SCF
      8  -3.19123808E+003                   -2.09141328E-004      39.28  <-- SCF
      9  -3.19122720E+003                   -3.39771377E-004      40.28  <-- SCF
     10  -3.19121016E+003                   -5.32529350E-004      41.31  <-- SCF
     11  -3.19118477E+003                   -7.93405470E-004      42.35  <-- SCF
     12  -3.19111256E+003                   -2.25662173E-003      43.34  <-- SCF
     13  -3.19103883E+003                   -2.30406564E-003      44.34  <-- SCF
     14  -3.19096925E+003                   -2.17454691E-003      45.32  <-- SCF
     15  -3.19091245E+003                   -1.77491785E-003      46.30  <-- SCF
     16  -3.19087380E+003                   -1.20772854E-003      47.28  <-- SCF
     17  -3.19084132E+003                   -1.01493656E-003      48.28  <-- SCF
     18  -3.19081200E+003                   -9.16316976E-004      49.28  <-- SCF
     19  -3.19078435E+003                   -8.64122021E-004      50.26  <-- SCF
     20  -3.19076295E+003                   -6.68755524E-004      51.13  <-- SCF
     21  -3.19073084E+003                   -1.00330623E-003      52.10  <-- SCF
     22  -3.19072098E+003                   -3.08322561E-004      53.14  <-- SCF
     23  -3.19072123E+003                    7.81853806E-006      54.16  <-- SCF
     24  -3.19072291E+003                    5.27334658E-005      55.15  <-- SCF
     25  -3.19072742E+003                    1.40771965E-004      56.00  <-- SCF
     26  -3.19073161E+003                    1.31085216E-004      56.84  <-- SCF
     27  -3.19073652E+003                    1.53213481E-004      57.70  <-- SCF
     28  -3.19073949E+003                    9.28889796E-005      58.48  <-- SCF
     29  -3.19074292E+003                    1.07072626E-004      59.27  <-- SCF
     30  -3.19074528E+003                    7.40130616E-005      60.05  <-- SCF
     31  -3.19074730E+003                    6.29606158E-005      60.84  <-- SCF
     32  -3.19074900E+003                    5.30801367E-005      61.62  <-- SCF
     33  -3.19074992E+003                    2.87558480E-005      62.41  <-- SCF
     34  -3.19075074E+003                    2.57752115E-005      63.22  <-- SCF
     35  -3.19075117E+003                    1.32850286E-005      64.04  <-- SCF
     36  -3.19075191E+003                    2.32870147E-005      64.82  <-- SCF
     37  -3.19075219E+003                    8.71023900E-006      65.61  <-- SCF
     38  -3.19075261E+003                    1.31891701E-005      66.39  <-- SCF
     39  -3.19075296E+003                    1.06692195E-005      67.18  <-- SCF
     40  -3.19075322E+003                    8.37570844E-006      67.97  <-- SCF
     41  -3.19075353E+003                    9.45788407E-006      68.76  <-- SCF
     42  -3.19075373E+003                    6.33879741E-006      69.54  <-- SCF
     43  -3.19075388E+003                    4.86312364E-006      70.33  <-- SCF
     44  -3.19075398E+003                    3.14216977E-006      71.11  <-- SCF
     45  -3.19075405E+003                    1.93793336E-006      71.90  <-- SCF
     46  -3.19075410E+003                    1.67618876E-006      72.69  <-- SCF
     47  -3.19075414E+003                    1.11886854E-006      73.47  <-- SCF
     48  -3.19075415E+003                    5.11053947E-007      74.25  <-- SCF
------------------------------------------------------------------------ <-- SCF
 
Final energy =  -3190.754152547     eV
(energy not corrected for finite basis set)
 
(SEDC) Total Energy Correction : -0.850324E+00 eV

Dispersion corrected final energy* =  -3191.604476754     eV

Writing analysis data to Conf_0001.castep_bin

Writing model to Conf_0001.check

WARNING - nonlinear constraints cannot be used with LBFGS algorithm
        - consider setting geom_method=DELOCALIZED
 
        => Turning nonlinear constraints OFF
 
+---------------- MEMORY AND SCRATCH DISK ESTIMATES PER PROCESS --------------+
|                                                     Memory          Disk    |
| Model and support data                              550.1 MB         0.0 MB |
| Electronic energy minimisation requirements          31.8 MB         0.0 MB |
| Geometry minimisation requirements                   34.8 MB         0.0 MB |
|                                               ----------------------------- |
| Approx. total storage required per process          616.7 MB         0.0 MB |
|                                                                             |
| Requirements will fluctuate during execution and may exceed these estimates |
+-----------------------------------------------------------------------------+
 
 
 ************************************** Forces **************************************
 *                                                                                  *
 *                           Cartesian components (eV/A)                            *
 * -------------------------------------------------------------------------------- *
 *                         x                    y                    z              *
 *                                                                                  *
 * H               1     -0.08587              0.08617             -0.14476         *
 * H               2     -0.26681              0.04754             -0.04924         *
 * H               3     -0.00671             -0.01235             -0.03374         *
 * H               4     -0.01622             -0.09080             -0.01046         *
 * H               5      0.06535              0.23675             -0.01940         *
 * H               6      0.10097             -0.03016              0.02380         *
 * H               7     -0.04009              0.16708              0.11780         *
 * H               8     -0.14886              0.05265              0.09492         *
 * H               9      0.05994              0.08151              0.03357         *
 * H              10     -0.04971              0.09505              0.13085         *
 * H              11     -0.37924              0.92098              0.00227         *
 * H              12      0.71360             -0.09684             -0.68423         *
 * H              13      0.62342              0.72796              0.08950         *
 * H              14     -0.57993             -0.00722              0.39682         *
 * H              15      0.01861              1.27647             -0.44889         *
 * H              16     -0.03317              0.04214             -0.11559         *
 * H              17     -0.11239             -0.06356             -0.05040         *
 * H              18     -0.12700             -0.03927             -0.12042         *
 * H              19      0.08336             -0.00947             -0.06238         *
 * H              20     -0.02165             -0.06118             -0.00552         *
 * C               1     -0.43602              0.35879             -0.07357         *
 * C               2      0.04930              0.05198             -0.01607         *
 * C               3     -0.27953             -0.23842             -0.30751         *
 * C               4      0.07542             -0.06416             -0.17449         *
 * C               5      0.03719              0.27707              0.57659         *
 * C               6      0.17539             -0.14837              0.07486         *
 * C               7     -0.05192              0.10725              0.06190         *
 * N               1      1.68320             -1.83500              0.85228         *
 * O               1     -1.04574              0.50944              0.23583         *
 * O               2     -0.11557             -1.25665              0.39335         *
 * O               3     -0.59142             -0.30113              0.12396         *
 * Si              1      0.70209             -0.78425             -0.89165         *
 *                                                                                  *
 ************************************************************************************
 EXP precond LBFGS => estimated nearest neighbor distance :  1.623       A
 EXP precond LBFGS => estimated cutoff distance :  3.247       A
 doing test perturbation to get energy scale for EXP preconditioner
 
                           -------------------------------
                                     Cell Contents
                           -------------------------------
 
            xxxxxxxxxxxxxxxxxxxxxxxxxxxxxxxxxxxxxxxxxxxxxxxxxxxxxxxxxxxxxxxxx
            x  Element         Atom        Fractional coordinates of atoms  x
            x                 Number           u          v          w      x
            x---------------------------------------------------------------x
            x  H                 1         0.462812   0.384402   0.537569   x
            x  H                 2         0.543040   0.432460   0.514371   x
            x  H                 3         0.393908   0.488726   0.559854   x
            x  H                 4         0.472499   0.535878   0.536475   x
            x  H                 5         0.378244   0.337314   0.493605   x
            x  H                 6         0.319231   0.390420   0.467594   x
            x  H                 7         0.468553   0.331049   0.448960   x
            x  H                 8         0.547495   0.373364   0.473244   x
            x  H                 9         0.421703   0.435953   0.423158   x
            x  H                10         0.549228   0.417291   0.421200   x
            x  H                11         0.413168   0.590385   0.466995   x
            x  H                12         0.605239   0.564498   0.412796   x
            x  H                13         0.659456   0.548524   0.475968   x
            x  H                14         0.321556   0.439405   0.514081   x
            x  H                15         0.395084   0.481852   0.492452   x
            x  H                16         0.544180   0.439486   0.584368   x
            x  H                17         0.622145   0.486647   0.561037   x
            x  H                18         0.602785   0.540082   0.610644   x
            x  H                19         0.471938   0.543155   0.605883   x
            x  H                20         0.550784   0.590431   0.582480   x
            x  C                 1         0.472084   0.432193   0.526494   x
            x  C                 2         0.466529   0.488926   0.548498   x
            x  C                 3         0.387085   0.383369   0.481000   x
            x  C                 4         0.477924   0.378536   0.460560   x
            x  C                 5         0.489957   0.432762   0.436638   x
            x  C                 6         0.548845   0.486107   0.571985   x
            x  C                 7         0.543275   0.543044   0.593932   x
            x  N                 1         0.387329   0.438697   0.503291   x
            x  O                 1         0.550832   0.570920   0.425816   x
            x  O                 2         0.615342   0.512428   0.474504   x
            x  O                 3         0.428081   0.545272   0.469959   x
            x  Si                1         0.523264   0.517414   0.451144   x
            xxxxxxxxxxxxxxxxxxxxxxxxxxxxxxxxxxxxxxxxxxxxxxxxxxxxxxxxxxxxxxxxx
 
 
------------------------------------------------------------------------ <-- SCF
SCF loop      Energy                           Energy gain       Timer   <-- SCF
                                               per atom          (sec)   <-- SCF
------------------------------------------------------------------------ <-- SCF
Initial  -3.19111839E+003                                         76.22  <-- SCF
      1  -3.19073513E+003                   -1.19767554E-002      77.01  <-- SCF
      2  -3.19075935E+003                    7.56807333E-004      78.18  <-- SCF
      3  -3.19073250E+003                   -8.38948348E-004      79.20  <-- SCF
      4  -3.19074912E+003                    5.19492799E-004      80.20  <-- SCF
      5  -3.19074928E+003                    4.92781085E-006      81.05  <-- SCF
      6  -3.19074946E+003                    5.62580184E-006      81.81  <-- SCF
      7  -3.19074954E+003                    2.31790005E-006      82.57  <-- SCF
      8  -3.19074960E+003                    1.96027589E-006      83.33  <-- SCF
      9  -3.19074963E+003                    1.12205357E-006      84.09  <-- SCF
     10  -3.19074968E+003                    1.43723356E-006      84.86  <-- SCF
     11  -3.19074970E+003                    4.70082234E-007      85.62  <-- SCF
------------------------------------------------------------------------ <-- SCF
 
Final energy =  -3190.749695940     eV
(energy not corrected for finite basis set)
 
(SEDC) Total Energy Correction : -0.851634E+00 eV

Dispersion corrected final energy* =  -3191.601330070     eV
 
 ************************************** Forces **************************************
 *                                                                                  *
 *                           Cartesian components (eV/A)                            *
 * -------------------------------------------------------------------------------- *
 *                         x                    y                    z              *
 *                                                                                  *
 * H               1     -0.09293              0.10098             -0.13473         *
 * H               2     -0.24134              0.07290             -0.06729         *
 * H               3      0.02703              0.00598             -0.03126         *
 * H               4     -0.02162             -0.05221             -0.03652         *
 * H               5      0.05359              0.24458             -0.01666         *
 * H               6      0.13227             -0.04550              0.02598         *
 * H               7     -0.03484              0.16852              0.12100         *
 * H               8     -0.15984              0.04030              0.10467         *
 * H               9      0.07993              0.08852              0.03921         *
 * H              10     -0.05891              0.09070              0.10782         *
 * H              11     -0.40368              1.00993             -0.01149         *
 * H              12      0.77531             -0.09749             -0.70582         *
 * H              13      0.65181              0.77355              0.10349         *
 * H              14     -0.50041             -0.00536              0.39126         *
 * H              15      0.02279              1.29906             -0.48064         *
 * H              16     -0.00561              0.02331             -0.09758         *
 * H              17     -0.09592             -0.06926             -0.06875         *
 * H              18     -0.11330             -0.03846             -0.08800         *
 * H              19      0.07702             -0.00947             -0.05210         *
 * H              20     -0.02807             -0.01318             -0.03517         *
 * C               1     -0.45531              0.34863             -0.08282         *
 * C               2      0.02664              0.03396              0.01006         *
 * C               3     -0.29286             -0.24582             -0.33005         *
 * C               4      0.05091             -0.08436             -0.17802         *
 * C               5      0.02004              0.26649              0.55912         *
 * C               6      0.16064             -0.16199              0.06548         *
 * C               7     -0.07238              0.09484              0.09741         *
 * N               1      1.59537             -1.89601              0.88927         *
 * O               1     -1.05777              0.54951              0.21803         *
 * O               2     -0.13085             -1.30880              0.41480         *
 * O               3     -0.58086             -0.37183              0.13029         *
 * Si              1      0.67315             -0.81203             -0.86098         *
 *                                                                                  *
 ************************************************************************************
 EXP precond LBFGS => estimated parameter mu :  1.000       eV/A**2
 LBFGS: finished iteration     0 with enthalpy= -3.19160448E+003 eV
  
 +-----------+-----------------+-----------------+------------+-----+ <-- LBFGS
 | Parameter |      value      |    tolerance    |    units   | OK? | <-- LBFGS
 +-----------+-----------------+-----------------+------------+-----+ <-- LBFGS
 |  dE/ion   |   0.000000E+000 |   2.000000E-005 |         eV | No  | <-- LBFGS
 |  |F|max   |   2.632658E+000 |   5.000000E-002 |       eV/A | No  | <-- LBFGS
 |  |dR|max  |   3.689311E-015 |   2.000000E-003 |          A | No  | <-- LBFGS
 +-----------+-----------------+-----------------+------------+-----+ <-- LBFGS
  

================================================================================
 Starting LBFGS iteration          1 ...
================================================================================
  
 +------------+-------------+-------------+-----------------+ <-- min LBFGS
 |    Step    |   lambda    |   F.delta'  |    enthalpy     | <-- min LBFGS
 +------------+-------------+-------------+-----------------+ <-- min LBFGS
 |  previous  |    0.000000 |    1.961332 |    -3191.604477 | <-- min LBFGS
 +------------+-------------+-------------+-----------------+ <-- min LBFGS
  

--------------------------------------------------------------------------------
 LBFGS: starting iteration         1 with trial guess (lambda=  0.644672)
--------------------------------------------------------------------------------
 
                           -------------------------------
                                     Cell Contents
                           -------------------------------
 
            xxxxxxxxxxxxxxxxxxxxxxxxxxxxxxxxxxxxxxxxxxxxxxxxxxxxxxxxxxxxxxxxx
            x  Element         Atom        Fractional coordinates of atoms  x
            x                 Number           u          v          w      x
            x---------------------------------------------------------------x
            x  H                 1         0.459028   0.383777   0.537474   x
            x  H                 2         0.538335   0.431581   0.514474   x
            x  H                 3         0.390974   0.486975   0.559686   x
            x  H                 4         0.469340   0.533929   0.536291   x
            x  H                 5         0.378837   0.337198   0.494244   x
            x  H                 6         0.320592   0.389015   0.468371   x
            x  H                 7         0.468303   0.332253   0.450168   x
            x  H                 8         0.546249   0.373618   0.474291   x
            x  H                 9         0.423228   0.437621   0.424529   x
            x  H                10         0.549871   0.419033   0.422722   x
            x  H                11         0.401205   0.599373   0.465957   x
            x  H                12         0.609873   0.565986   0.406950   x
            x  H                13         0.674004   0.546234   0.476065   x
            x  H                14         0.319569   0.436636   0.515956   x
            x  H                15         0.395496   0.484660   0.492458   x
            x  H                16         0.540335   0.437543   0.583637   x
            x  H                17         0.617672   0.484164   0.560428   x
            x  H                18         0.597528   0.537820   0.609702   x
            x  H                19         0.468488   0.541095   0.605114   x
            x  H                20         0.546449   0.588161   0.581810   x
            x  C                 1         0.467640   0.431831   0.526638   x
            x  C                 2         0.463564   0.487370   0.548331   x
            x  C                 3         0.386711   0.381610   0.481442   x
            x  C                 4         0.478179   0.378652   0.461340   x
            x  C                 5         0.491117   0.434556   0.438462   x
            x  C                 6         0.545719   0.483636   0.571549   x
            x  C                 7         0.538913   0.541172   0.593310   x
            x  N                 1         0.393167   0.433081   0.505038   x
            x  O                 1         0.545454   0.574199   0.421999   x
            x  O                 2         0.623935   0.503206   0.474848   x
            x  O                 3         0.418022   0.548177   0.469142   x
            x  Si                1         0.528866   0.513086   0.447880   x
            xxxxxxxxxxxxxxxxxxxxxxxxxxxxxxxxxxxxxxxxxxxxxxxxxxxxxxxxxxxxxxxxx
 
 
------------------------------------------------------------------------ <-- SCF
SCF loop      Energy                           Energy gain       Timer   <-- SCF
                                               per atom          (sec)   <-- SCF
------------------------------------------------------------------------ <-- SCF
Initial  -3.20140712E+003                                         87.02  <-- SCF
      1  -3.18594364E+003                   -4.83233907E-001      87.81  <-- SCF
      2  -3.18905279E+003                    9.71610072E-002      89.05  <-- SCF
      3  -3.18832441E+003                   -2.27618978E-002      90.22  <-- SCF
      4  -3.18842211E+003                    3.05319874E-003      91.30  <-- SCF
      5  -3.18846977E+003                    1.48929695E-003      92.30  <-- SCF
      6  -3.18847107E+003                    4.05545190E-005      93.52  <-- SCF
      7  -3.18847084E+003                   -6.93212096E-006      94.54  <-- SCF
      8  -3.18847058E+003                   -8.20789429E-006      95.45  <-- SCF
      9  -3.18847051E+003                   -2.13864919E-006      96.41  <-- SCF
     10  -3.18847044E+003                   -2.42292625E-006      97.33  <-- SCF
     11  -3.18847090E+003                    1.45960712E-005      98.15  <-- SCF
     12  -3.18847164E+003                    2.30143761E-005      99.02  <-- SCF
     13  -3.18847210E+003                    1.44476659E-005      99.79  <-- SCF
     14  -3.18847270E+003                    1.86173772E-005     100.55  <-- SCF
     15  -3.18847321E+003                    1.60985762E-005     101.32  <-- SCF
     16  -3.18847367E+003                    1.41823658E-005     102.09  <-- SCF
     17  -3.18847397E+003                    9.40725295E-006     102.86  <-- SCF
     18  -3.18847434E+003                    1.15689542E-005     103.64  <-- SCF
     19  -3.18847451E+003                    5.44170935E-006     104.41  <-- SCF
     20  -3.18847465E+003                    4.27599430E-006     105.19  <-- SCF
     21  -3.18847480E+003                    4.79413345E-006     105.97  <-- SCF
     22  -3.18847495E+003                    4.57480362E-006     106.75  <-- SCF
     23  -3.18847497E+003                    7.92445613E-007     107.53  <-- SCF
     24  -3.18847504E+003                    1.96873020E-006     108.35  <-- SCF
     25  -3.18847505E+003                    2.87879862E-007     109.14  <-- SCF
     26  -3.18847511E+003                    1.90436013E-006     109.92  <-- SCF
     27  -3.18847513E+003                    8.10078128E-007     110.70  <-- SCF
     28  -3.18847522E+003                    2.79610519E-006     111.48  <-- SCF
     29  -3.18847532E+003                    3.18648854E-006     112.27  <-- SCF
     30  -3.18847542E+003                    2.84740737E-006     113.05  <-- SCF
     31  -3.18847553E+003                    3.59774990E-006     113.84  <-- SCF
     32  -3.18847562E+003                    2.73779872E-006     114.62  <-- SCF
     33  -3.18847578E+003                    4.99946625E-006     115.40  <-- SCF
     34  -3.18847590E+003                    3.87608815E-006     116.19  <-- SCF
     35  -3.18847603E+003                    4.00151726E-006     116.97  <-- SCF
     36  -3.18847617E+003                    4.37923284E-006     117.75  <-- SCF
     37  -3.18847621E+003                    1.34252102E-006     118.53  <-- SCF
     38  -3.18847632E+003                    3.24314120E-006     119.31  <-- SCF
     39  -3.18847635E+003                    9.97338305E-007     120.10  <-- SCF
     40  -3.18847640E+003                    1.47503306E-006     120.88  <-- SCF
     41  -3.18847642E+003                    5.76322803E-007     121.66  <-- SCF
     42  -3.18847643E+003                    6.08054535E-007     122.45  <-- SCF
------------------------------------------------------------------------ <-- SCF
 
Final energy =  -3188.476434498     eV
(energy not corrected for finite basis set)
 
(SEDC) Total Energy Correction : -0.845377E+00 eV

Dispersion corrected final energy* =  -3189.321811924     eV
 
 ************************************** Forces **************************************
 *                                                                                  *
 *                           Cartesian components (eV/A)                            *
 * -------------------------------------------------------------------------------- *
 *                         x                    y                    z              *
 *                                                                                  *
 * H               1      0.37105             -0.01104              0.36678         *
 * H               2      0.17226              0.03532              0.22098         *
 * H               3     -0.04139              0.03767              0.02147         *
 * H               4     -0.00686              0.16024             -0.08690         *
 * H               5      0.00323             -0.83840             -0.00592         *
 * H               6     -0.56975              0.30529             -0.17266         *
 * H               7      0.09498             -0.45228             -0.57709         *
 * H               8      0.14577             -0.03860              0.21240         *
 * H               9      0.24422              0.10176              0.11347         *
 * H              10     -0.07943             -0.19386             -0.00196         *
 * H              11      0.93568             -3.57203              0.47389         *
 * H              12     -3.31460              0.63040              2.55372         *
 * H              13     -2.66141             -3.25170             -0.20338         *
 * H              14      2.10196             -0.27431             -1.01214         *
 * H              15      0.01023             -1.77565              1.04362         *
 * H              16     -0.03142             -0.36333              0.17054         *
 * H              17      0.25509             -0.02128             -0.16994         *
 * H              18      0.35530              0.03697              0.34385         *
 * H              19     -0.33355             -0.01609              0.13283         *
 * H              20      0.03744              0.14018             -0.11183         *
 * C               1      2.16546             -1.43980              1.05858         *
 * C               2     -0.24732              0.22391              0.28014         *
 * C               3      1.16938              0.18289              0.48967         *
 * C               4     -0.05406              0.39290              0.46568         *
 * C               5     -1.03459             -2.75645             -1.37489         *
 * C               6     -0.25265              0.46979              0.06300         *
 * C               7      0.09912             -0.23674             -0.34017         *
 * N               1     -5.17075              4.39880             -2.61692         *
 * O               1      3.17269             -2.37022             -1.21001         *
 * O               2      0.87279              3.53917             -1.71934         *
 * O               3      1.36689              1.72144             -1.57457         *
 * Si              1      0.22426              5.23506              3.16709         *
 *                                                                                  *
 ************************************************************************************
  
 +------------+-------------+-------------+-----------------+ <-- min LBFGS
 |    Step    |   lambda    |   F.delta'  |    enthalpy     | <-- min LBFGS
 +------------+-------------+-------------+-----------------+ <-- min LBFGS
 |  previous  |    0.000000 |    1.961332 |    -3191.604477 | <-- min LBFGS
 | trial step |    0.644672 |   -5.886100 |    -3189.321812 | <-- min LBFGS
 +------------+-------------+-------------+-----------------+ <-- min LBFGS
  

--------------------------------------------------------------------------------
 LBFGS: improving iteration         1 with line minimization (lambda=  0.161125)
--------------------------------------------------------------------------------
 
                           -------------------------------
                                     Cell Contents
                           -------------------------------
 
            xxxxxxxxxxxxxxxxxxxxxxxxxxxxxxxxxxxxxxxxxxxxxxxxxxxxxxxxxxxxxxxxx
            x  Element         Atom        Fractional coordinates of atoms  x
            x                 Number           u          v          w      x
            x---------------------------------------------------------------x
            x  H                 1         0.460984   0.383651   0.537433   x
            x  H                 2         0.540961   0.431646   0.514256   x
            x  H                 3         0.392349   0.487720   0.559728   x
            x  H                 4         0.470821   0.534864   0.536315   x
            x  H                 5         0.377584   0.336710   0.493600   x
            x  H                 6         0.318844   0.389474   0.467597   x
            x  H                 7         0.467605   0.330779   0.449054   x
            x  H                 8         0.546281   0.372836   0.473320   x
            x  H                 9         0.421231   0.435776   0.423272   x
            x  H                10         0.548487   0.417130   0.421350   x
            x  H                11         0.409333   0.592175   0.466544   x
            x  H                12         0.605514   0.564378   0.411099   x
            x  H                13         0.662249   0.547440   0.475809   x
            x  H                14         0.320328   0.438120   0.514408   x
            x  H                15         0.394360   0.481980   0.492288   x
            x  H                16         0.542316   0.438408   0.584134   x
            x  H                17         0.620153   0.485456   0.560802   x
            x  H                18         0.600586   0.538995   0.610393   x
            x  H                19         0.470189   0.542122   0.605668   x
            x  H                20         0.548798   0.589408   0.582258   x
            x  C                 1         0.470086   0.431509   0.526404   x
            x  C                 2         0.464903   0.487969   0.548357   x
            x  C                 3         0.386173   0.382336   0.480933   x
            x  C                 4         0.477098   0.377972   0.460557   x
            x  C                 5         0.489352   0.432616   0.436875   x
            x  C                 6         0.547161   0.484919   0.571807   x
            x  C                 7         0.541282   0.542058   0.593738   x
            x  N                 1         0.387969   0.436700   0.503574   x
            x  O                 1         0.548586   0.571256   0.424635   x
            x  O                 2         0.616612   0.509574   0.474406   x
            x  O                 3         0.424709   0.545482   0.469566   x
            x  Si                1         0.523761   0.515788   0.450122   x
            xxxxxxxxxxxxxxxxxxxxxxxxxxxxxxxxxxxxxxxxxxxxxxxxxxxxxxxxxxxxxxxxx
 
 
------------------------------------------------------------------------ <-- SCF
SCF loop      Energy                           Energy gain       Timer   <-- SCF
                                               per atom          (sec)   <-- SCF
------------------------------------------------------------------------ <-- SCF
Initial  -3.21309157E+003                                        123.85  <-- SCF
      1  -3.18995858E+003                   -7.22905936E-001     124.67  <-- SCF
      2  -3.19117839E+003                    3.81189002E-002     125.76  <-- SCF
      3  -3.19076664E+003                   -1.28671047E-002     126.75  <-- SCF
      4  -3.19087298E+003                    3.32307910E-003     127.82  <-- SCF
      5  -3.19090854E+003                    1.11124389E-003     128.86  <-- SCF
      6  -3.19090894E+003                    1.25358016E-005     129.91  <-- SCF
      7  -3.19090833E+003                   -1.92081723E-005     130.87  <-- SCF
      8  -3.19090814E+003                   -5.73755555E-006     131.71  <-- SCF
      9  -3.19090813E+003                   -4.23524489E-007     132.63  <-- SCF
     10  -3.19090847E+003                    1.07904683E-005     133.39  <-- SCF
     11  -3.19090897E+003                    1.55205847E-005     134.19  <-- SCF
     12  -3.19090945E+003                    1.50460540E-005     134.96  <-- SCF
     13  -3.19090981E+003                    1.12767688E-005     135.72  <-- SCF
     14  -3.19091011E+003                    9.30032145E-006     136.54  <-- SCF
     15  -3.19091026E+003                    4.55199526E-006     137.31  <-- SCF
     16  -3.19091041E+003                    4.82271051E-006     138.10  <-- SCF
     17  -3.19091056E+003                    4.69811208E-006     138.89  <-- SCF
     18  -3.19091062E+003                    1.78401184E-006     139.67  <-- SCF
     19  -3.19091070E+003                    2.68129310E-006     140.44  <-- SCF
     20  -3.19091077E+003                    2.12867526E-006     141.22  <-- SCF
     21  -3.19091088E+003                    3.40935602E-006     141.99  <-- SCF
     22  -3.19091095E+003                    2.09510067E-006     142.77  <-- SCF
     23  -3.19091098E+003                    1.13871045E-006     143.56  <-- SCF
     24  -3.19091099E+003                    2.90432353E-007     144.34  <-- SCF
------------------------------------------------------------------------ <-- SCF
 
Final energy =  -3190.910993835     eV
(energy not corrected for finite basis set)
 
(SEDC) Total Energy Correction : -0.848470E+00 eV

Dispersion corrected final energy* =  -3191.759463924     eV
 
 ************************************** Forces **************************************
 *                                                                                  *
 *                           Cartesian components (eV/A)                            *
 * -------------------------------------------------------------------------------- *
 *                         x                    y                    z              *
 *                                                                                  *
 * H               1      0.02175              0.07397             -0.03536         *
 * H               2     -0.17811              0.04157              0.01809         *
 * H               3     -0.01604             -0.00761             -0.01657         *
 * H               4     -0.00959             -0.03259             -0.02494         *
 * H               5      0.05133             -0.01774             -0.01906         *
 * H               6     -0.05819              0.04662             -0.02048         *
 * H               7     -0.00340              0.02636             -0.04788         *
 * H               8     -0.07667              0.02823              0.13347         *
 * H               9      0.11311              0.08993              0.06054         *
 * H              10     -0.06880              0.02931              0.09897         *
 * H              11      0.08496             -0.57197              0.15143         *
 * H              12     -0.76178              0.16872              0.52475         *
 * H              13     -0.63278             -0.70671             -0.04083         *
 * H              14      0.26365             -0.06612             -0.04759         *
 * H              15     -0.06158              0.01658              0.20460         *
 * H              16     -0.03605             -0.05800             -0.04442         *
 * H              17     -0.01641             -0.05629             -0.07865         *
 * H              18     -0.01217             -0.01862             -0.00889         *
 * H              19     -0.00994             -0.01330             -0.01349         *
 * H              20     -0.01022             -0.01262             -0.02990         *
 * C               1      0.00177             -0.07824              0.01589         *
 * C               2     -0.02367              0.08715              0.05318         *
 * C               3      0.06125             -0.14538             -0.11009         *
 * C               4      0.03975              0.04289             -0.00913         *
 * C               5     -0.12971             -0.29837              0.08760         *
 * C               6      0.06640              0.00290              0.07167         *
 * C               7     -0.01153              0.01772             -0.03352         *
 * N               1      0.10705              0.21798              0.02715         *
 * O               1      0.48511             -0.34926             -0.46732         *
 * O               2      0.31483              0.34258             -0.24338         *
 * O               3      0.34424              0.36972             -0.68648         *
 * Si              1      0.16146              0.83057              0.53065         *
 *                                                                                  *
 ************************************************************************************
  
 +------------+-------------+-------------+-----------------+ <-- min LBFGS
 |    Step    |   lambda    |   F.delta'  |    enthalpy     | <-- min LBFGS
 +------------+-------------+-------------+-----------------+ <-- min LBFGS
 |  previous  |    0.000000 |    1.961332 |    -3191.604477 | <-- min LBFGS
 | trial step |    0.644672 |   -5.886100 |    -3189.321812 | <-- min LBFGS
 |  line step |    0.161125 |   -0.555606 |    -3191.759464 | <-- min LBFGS
 +------------+-------------+-------------+-----------------+ <-- min LBFGS
  
 LBFGS: finished iteration     1 with enthalpy= -3.19175946E+003 eV
  
 +-----------+-----------------+-----------------+------------+-----+ <-- LBFGS
 | Parameter |      value      |    tolerance    |    units   | OK? | <-- LBFGS
 +-----------+-----------------+-----------------+------------+-----+ <-- LBFGS
 |  dE/ion   |   4.843349E-003 |   2.000000E-005 |         eV | No  | <-- LBFGS
 |  |F|max   |   9.987540E-001 |   5.000000E-002 |       eV/A | No  | <-- LBFGS
 |  |dR|max  |   6.612941E-002 |   2.000000E-003 |          A | No  | <-- LBFGS
 +-----------+-----------------+-----------------+------------+-----+ <-- LBFGS
  

================================================================================
 Starting LBFGS iteration          2 ...
================================================================================
  
 +------------+-------------+-------------+-----------------+ <-- min LBFGS
 |    Step    |   lambda    |   F.delta'  |    enthalpy     | <-- min LBFGS
 +------------+-------------+-------------+-----------------+ <-- min LBFGS
 |  previous  |    0.000000 |    0.695678 |    -3191.759464 | <-- min LBFGS
 +------------+-------------+-------------+-----------------+ <-- min LBFGS
  

--------------------------------------------------------------------------------
 LBFGS: starting iteration         2 with trial guess (lambda=  1.000000)
--------------------------------------------------------------------------------
 
                           -------------------------------
                                     Cell Contents
                           -------------------------------
 
            xxxxxxxxxxxxxxxxxxxxxxxxxxxxxxxxxxxxxxxxxxxxxxxxxxxxxxxxxxxxxxxxx
            x  Element         Atom        Fractional coordinates of atoms  x
            x                 Number           u          v          w      x
            x---------------------------------------------------------------x
            x  H                 1         0.461262   0.384757   0.537259   x
            x  H                 2         0.538671   0.432371   0.514393   x
            x  H                 3         0.392338   0.487433   0.559343   x
            x  H                 4         0.470778   0.534303   0.535904   x
            x  H                 5         0.381243   0.337522   0.494146   x
            x  H                 6         0.321896   0.389991   0.468284   x
            x  H                 7         0.468867   0.332786   0.450440   x
            x  H                 8         0.546210   0.374362   0.475023   x
            x  H                 9         0.423779   0.438276   0.425551   x
            x  H                10         0.548168   0.419212   0.423910   x
            x  H                11         0.410349   0.593344   0.464920   x
            x  H                12         0.592487   0.566140   0.410822   x
            x  H                13         0.656304   0.538638   0.475162   x
            x  H                14         0.324989   0.437650   0.515433   x
            x  H                15         0.398111   0.485029   0.492596   x
            x  H                16         0.541231   0.437110   0.583117   x
            x  H                17         0.618856   0.483852   0.559779   x
            x  H                18         0.598530   0.537552   0.609141   x
            x  H                19         0.469185   0.540875   0.604527   x
            x  H                20         0.547321   0.588001   0.581144   x
            x  C                 1         0.469733   0.432206   0.526489   x
            x  C                 2         0.464872   0.488024   0.548081   x
            x  C                 3         0.389059   0.382055   0.481346   x
            x  C                 4         0.478793   0.379373   0.461833   x
            x  C                 5         0.489893   0.433842   0.439361   x
            x  C                 6         0.547013   0.483638   0.571139   x
            x  C                 7         0.539829   0.541002   0.592674   x
            x  N                 1         0.395380   0.435454   0.504687   x
            x  O                 1         0.540983   0.571871   0.423099   x
            x  O                 2         0.616106   0.503191   0.473747   x
            x  O                 3         0.427140   0.548407   0.466830   x
            x  Si                1         0.527290   0.518980   0.450124   x
            xxxxxxxxxxxxxxxxxxxxxxxxxxxxxxxxxxxxxxxxxxxxxxxxxxxxxxxxxxxxxxxxx
 
 
------------------------------------------------------------------------ <-- SCF
SCF loop      Energy                           Energy gain       Timer   <-- SCF
                                               per atom          (sec)   <-- SCF
------------------------------------------------------------------------ <-- SCF
Initial  -3.21852369E+003                                        145.69  <-- SCF
      1  -3.18911110E+003                   -9.19143412E-001     146.48  <-- SCF
      2  -3.19025709E+003                    3.58123658E-002     147.59  <-- SCF
      3  -3.18995275E+003                   -9.51059101E-003     148.59  <-- SCF
      4  -3.19005319E+003                    3.13870310E-003     149.62  <-- SCF
      5  -3.19006484E+003                    3.63917856E-004     150.82  <-- SCF
      6  -3.19006605E+003                    3.79304481E-005     151.80  <-- SCF
      7  -3.19006636E+003                    9.74920539E-006     152.67  <-- SCF
[...]
 * H              17      0.00053              0.00052             -0.00213         *
 * H              18      0.00831              0.00017              0.00695         *
 * H              19     -0.01120             -0.00248              0.00155         *
 * H              20      0.00095              0.00810             -0.00317         *
 * C               1     -0.00041             -0.00170             -0.01423         *
 * C               2      0.00257              0.00620              0.00637         *
 * C               3      0.00698              0.00264              0.00338         *
 * C               4     -0.00858             -0.00473             -0.00239         *
 * C               5      0.00980             -0.00446             -0.01247         *
 * C               6     -0.00114             -0.01186             -0.00462         *
 * C               7      0.00423             -0.00194             -0.00320         *
 * N               1      0.00816              0.00067              0.00859         *
 * O               1      0.00224              0.00272             -0.00032         *
 * O               2      0.00928              0.00682              0.00115         *
 * O               3      0.00170             -0.00276              0.00598         *
 * Si              1      0.00307             -0.00285              0.00181         *
 *                                                                                  *
 ************************************************************************************
 
 Pseudo atomic calculation performed for H 1s1
 
 Converged in 13 iterations to a total energy of -12.4790 eV
 
 Pseudo atomic calculation performed for C 2s2 2p2
 
 Converged in 17 iterations to a total energy of -148.5208 eV
 
 Pseudo atomic calculation performed for N 2s2 2p3
 
 Converged in 21 iterations to a total energy of -268.1820 eV
 
 Pseudo atomic calculation performed for O 2s2 2p4
 
 Converged in 23 iterations to a total energy of -432.6536 eV
 
 Pseudo atomic calculation performed for Si 3s2 3p2
 
 Converged in 11 iterations to a total energy of -165.0683 eV
Charge spilling parameter for spin component 1 = 1.52%
 
            Orbital Populations       
     Ion    Atom   Orbital             Charge
  -------------------------------------------
      H     1      S                    0.699
      H     2      S                    0.708
      H     3      S                    0.739
      H     4      S                    0.735
      H     5      S                    0.684
      H     6      S                    0.689
      H     7      S                    0.680
      H     8      S                    0.723
      H     9      S                    0.714
      H    10      S                    0.695
      H    11      S                    0.449
      H    12      S                    0.449
      H    13      S                    0.463
      H    14      S                    0.516
      H    15      S                    0.565
      H    16      S                    0.725
      H    17      S                    0.737
      H    18      S                    0.703
      H    19      S                    0.726
      H    20      S                    0.736
      C     1      S                    1.287
      C     1      Px                   0.985
      C     1      Py                   1.160
      C     1      Pz                   0.956
      C     2      S                    1.293
      C     2      Px                   1.123
      C     2      Py                   1.066
      C     2      Pz                   1.031
      C     3      S                    1.305
      C     3      Px                   1.134
      C     3      Py                   0.989
      C     3      Pz                   0.994
      C     4      S                    1.301
      C     4      Px                   1.045
      C     4      Py                   1.132
      C     4      Pz                   1.049
      C     5      S                    1.408
      C     5      Px                   1.248
      C     5      Py                   1.179
      C     5      Pz                   1.149
      C     6      S                    1.303
      C     6      Px                   1.063
      C     6      Py                   1.115
      C     6      Pz                   1.027
      C     7      S                    1.399
      C     7      Px                   1.215
      C     7      Py                   1.061
      C     7      Pz                   1.117
      N     1      S                    1.576
      N     1      Px                   1.351
      N     1      Py                   1.375
      N     1      Pz                   1.304
      O     1      S                    1.851
      O     1      Px                   1.757
      O     1      Py                   1.826
      O     1      Pz                   1.656
      O     2      S                    1.856
      O     2      Px                   1.690
      O     2      Py                   1.747
      O     2      Pz                   1.802
      O     3      S                    1.845
      O     3      Px                   1.780
      O     3      Py                   1.606
      O     3      Pz                   1.863
     Si     1      S                    0.739
     Si     1      Px                   0.335
     Si     1      Py                   0.431
     Si     1      Pz                   0.343
  -------------------------------------------
                           Total:      74.000
  -------------------------------------------
 
     Atomic Populations (Mulliken)
     -----------------------------
Species          Ion     s       p       d       f      Total   Charge (e)
==========================================================================
  H               1     0.699   0.000   0.000   0.000   0.699     0.301
  H               2     0.708   0.000   0.000   0.000   0.708     0.292
  H               3     0.739   0.000   0.000   0.000   0.739     0.261
  H               4     0.735   0.000   0.000   0.000   0.735     0.265
  H               5     0.684   0.000   0.000   0.000   0.684     0.316
  H               6     0.689   0.000   0.000   0.000   0.689     0.311
  H               7     0.680   0.000   0.000   0.000   0.680     0.320
  H               8     0.723   0.000   0.000   0.000   0.723     0.277
  H               9     0.714   0.000   0.000   0.000   0.714     0.286
  H              10     0.695   0.000   0.000   0.000   0.695     0.305
  H              11     0.449   0.000   0.000   0.000   0.449     0.551
  H              12     0.449   0.000   0.000   0.000   0.449     0.551
  H              13     0.463   0.000   0.000   0.000   0.463     0.537
  H              14     0.516   0.000   0.000   0.000   0.516     0.484
  H              15     0.565   0.000   0.000   0.000   0.565     0.435
  H              16     0.725   0.000   0.000   0.000   0.725     0.275
  H              17     0.737   0.000   0.000   0.000   0.737     0.263
  H              18     0.703   0.000   0.000   0.000   0.703     0.297
  H              19     0.726   0.000   0.000   0.000   0.726     0.274
  H              20     0.736   0.000   0.000   0.000   0.736     0.264
  C               1     1.287   3.102   0.000   0.000   4.389    -0.389
  C               2     1.293   3.219   0.000   0.000   4.513    -0.513
  C               3     1.305   3.117   0.000   0.000   4.422    -0.422
  C               4     1.301   3.227   0.000   0.000   4.528    -0.528
  C               5     1.408   3.575   0.000   0.000   4.983    -0.983
  C               6     1.303   3.205   0.000   0.000   4.508    -0.508
  C               7     1.399   3.393   0.000   0.000   4.792    -0.792
  N               1     1.576   4.030   0.000   0.000   5.605    -0.605
  O               1     1.851   5.239   0.000   0.000   7.090    -1.090
  O               2     1.856   5.238   0.000   0.000   7.094    -1.094
  O               3     1.845   5.249   0.000   0.000   7.094    -1.094
  Si              1     0.739   1.109   0.000   0.000   1.848     2.152
==========================================================================
 
                 Bond                   Population      Length (A)
======================================================================
              H 12 -- O 1                    0.53        0.96827
              H 13 -- O 2                    0.53        0.96928
              H 11 -- O 3                    0.52        0.97033
              H 14 -- N 1                    0.68        1.02822
              H 15 -- N 1                    0.65        1.05351
              H 2  -- C 1                    0.88        1.09633
              H 5  -- C 3                    0.85        1.09723
              H 18 -- C 7                    0.81        1.09759
              H 1  -- C 1                    0.85        1.09855
              H 19 -- C 7                    0.81        1.09963
              H 8  -- C 4                    0.85        1.09964
              H 6  -- C 3                    0.84        1.09967
              H 20 -- C 7                    0.81        1.09994
              H 7  -- C 4                    0.84        1.10069
              H 9  -- C 5                    0.82        1.10172
              H 16 -- C 6                    0.84        1.10185
              H 17 -- C 6                    0.84        1.10187
              H 4  -- C 2                    0.85        1.10199
              H 10 -- C 5                    0.81        1.10294
              H 3  -- C 2                    0.85        1.10331
               C 1 -- N 1                    0.52        1.50444
               C 3 -- N 1                    0.51        1.51376
               C 1 -- C 2                    0.71        1.51636
               C 3 -- C 4                    0.70        1.52626
               C 6 -- C 7                    0.65        1.52629
               C 2 -- C 6                    0.69        1.52968
               C 4 -- C 5                    0.64        1.54177
               O 1 -- Si 1                   0.54        1.63386
               O 2 -- Si 1                   0.50        1.64906
              H 14 -- H 15                  -0.11        1.66965
               O 3 -- Si 1                   0.43        1.67806
              H 15 -- O 3                    0.10        1.73454
              H 7  -- H 8                   -0.11        1.75099
              H 9  -- H 10                  -0.09        1.75421
              H 16 -- H 17                  -0.12        1.76727
              H 18 -- H 20                  -0.10        1.77609
              H 3  -- H 4                   -0.12        1.77734
              H 18 -- H 19                  -0.10        1.77743
              H 19 -- H 20                  -0.10        1.77944
              H 5  -- H 6                   -0.10        1.78416
              H 1  -- H 2                   -0.11        1.79034
               C 5 -- Si 1                   0.63        1.86449
              H 14 -- C 1                   -0.13        2.06888
              H 14 -- C 3                   -0.14        2.08144
              H 15 -- C 1                   -0.12        2.08953
              H 7  -- C 3                   -0.14        2.09405
              H 5  -- N 1                   -0.12        2.09619
              H 2  -- N 1                   -0.11        2.10347
              H 6  -- N 1                   -0.12        2.10582
              H 1  -- N 1                   -0.11        2.10829
              H 15 -- C 3                   -0.11        2.11798
              H 4  -- C 1                   -0.14        2.14916
              H 17 -- C 2                   -0.14        2.15219
              H 10 -- C 4                   -0.12        2.15250
              H 16 -- C 2                   -0.14        2.15627
              H 7  -- C 5                   -0.13        2.16030
              H 3  -- C 1                   -0.14        2.16113
              H 2  -- C 2                   -0.12        2.16296
              H 3  -- C 6                   -0.12        2.16317
              H 4  -- C 6                   -0.12        2.16368
              H 5  -- C 4                   -0.13        2.16587
              H 17 -- C 7                   -0.13        2.16950
              H 16 -- C 7                   -0.13        2.17236
              H 8  -- C 3                   -0.12        2.17360
              H 20 -- C 6                   -0.12        2.17382
              H 6  -- C 4                   -0.13        2.17385
              H 19 -- C 6                   -0.12        2.17458
              H 2  -- H 8                   -0.04        2.17462
              H 1  -- C 2                   -0.12        2.17966
              H 18 -- C 6                   -0.11        2.18137
              H 9  -- C 4                   -0.11        2.18184
              H 8  -- C 5                   -0.13        2.18645
              H 13 -- Si 1                  -0.14        2.28213
              H 12 -- Si 1                  -0.12        2.29811
              H 11 -- Si 1                  -0.12        2.29892
              H 6  -- H 14                  -0.03        2.34003
              H 5  -- H 7                   -0.04        2.35030
              H 5  -- H 14                  -0.03        2.37212
              H 7  -- H 10                  -0.05        2.38475
              H 2  -- H 15                  -0.03        2.39369
              H 10 -- Si 1                  -0.13        2.41781
              H 1  -- H 14                  -0.03        2.41844
              H 6  -- H 15                  -0.03        2.42131
              H 3  -- H 14                  -0.01        2.44281
              H 9  -- Si 1                  -0.14        2.44334
              H 4  -- H 15                  -0.01        2.45917
              H 1  -- H 5                   -0.01        2.47131
               C 2 -- N 1                   -0.14        2.48367
              H 2  -- H 4                   -0.03        2.48913
              H 3  -- H 16                  -0.04        2.49171
              H 6  -- H 7                   -0.02        2.50609
              H 2  -- H 17                  -0.01        2.50631
              H 16 -- H 18                  -0.03        2.50933
               C 1 -- C 6                   -0.15        2.50935
              H 17 -- H 20                  -0.03        2.51092
              H 4  -- H 17                  -0.03        2.51637
              H 11 -- H 15                  -0.01        2.52258
              H 1  -- H 3                   -0.03        2.52903
               C 2 -- C 7                   -0.16        2.52985
              H 17 -- H 18                  -0.03        2.53281
              H 5  -- H 8                   -0.02        2.53918
              H 7  -- H 9                   -0.03        2.54218
              H 8  -- H 10                  -0.02        2.54324
              H 16 -- H 19                  -0.03        2.54453
               C 1 -- C 3                   -0.13        2.54869
              H 6  -- H 9                   -0.01        2.55294
              H 4  -- H 20                  -0.01        2.56306
               C 4 -- N 1                   -0.12        2.56413
              H 3  -- H 19                  -0.01        2.56818
              H 1  -- H 16                  -0.01        2.56974
              H 2  -- O 2                    0.00        2.57516
               O 1 -- O 3                   -0.08        2.60238
               C 3 -- C 5                   -0.15        2.60534
              H 11 -- O 1                   -0.01        2.63234
              H 14 -- C 2                   -0.04        2.63942
              H 15 -- C 2                   -0.03        2.67871
              H 17 -- C 1                   -0.04        2.69954
              H 4  -- N 1                   -0.03        2.71324
               O 2 -- O 3                   -0.07        2.71400
              H 3  -- N 1                   -0.03        2.72681
              H 1  -- C 3                   -0.04        2.72843
              H 15 -- Si 1                  -0.05        2.72939
              H 4  -- C 7                   -0.04        2.74388
              H 16 -- C 1                   -0.04        2.74611
              H 5  -- C 1                   -0.04        2.74833
               N 1 -- O 3                   -0.11        2.75506
               O 1 -- O 2                   -0.07        2.77006
              H 19 -- C 2                   -0.04        2.77280
              H 2  -- C 6                   -0.03        2.77504
              H 2  -- C 3                   -0.02        2.77961
              H 3  -- C 7                   -0.03        2.77998
              H 2  -- C 4                   -0.03        2.78129
              H 1  -- C 6                   -0.03        2.78853
               C 5 -- O 2                   -0.11        2.79379
              H 8  -- C 1                   -0.03        2.79899
              H 6  -- C 5                   -0.04        2.79910
              H 20 -- C 2                   -0.04        2.80321
              H 8  -- N 1                   -0.02        2.80493
              H 9  -- C 3                   -0.04        2.80877
              H 15 -- C 4                   -0.02        2.81145
              H 8  -- O 2                   -0.00        2.84598
               C 5 -- O 3                   -0.10        2.84780
               C 4 -- Si 1                  -0.12        2.92816
              H 2  -- H 14                   0.04        2.94816
              H 4  -- H 14                  -0.00        2.96286
              H 13 -- O 1                   -0.01        2.97539
               C 5 -- O 1                   -0.08        2.97647
              H 1  -- H 15                   0.03        2.97677
              H 5  -- H 15                   0.03        2.98187
              H 15 -- C 5                   -0.01        2.98874
              H 1  -- H 8                   -0.00        2.99933
======================================================================
 
 
     Hirshfeld Analysis
     ------------------
Species   Ion     Hirshfeld Charge (e)
======================================
  H        1                 0.06
  H        2                 0.05
  H        3                 0.04
  H        4                 0.04
  H        5                 0.07
  H        6                 0.07
  H        7                 0.06
  H        8                 0.05
  H        9                 0.05
  H       10                 0.06
  H       11                 0.19
  H       12                 0.19
  H       13                 0.18
  H       14                 0.17
  H       15                 0.12
  H       16                 0.05
  H       17                 0.04
  H       18                 0.05
  H       19                 0.05
  H       20                 0.04
  C        1                 0.01
  C        2                -0.06
  C        3                 0.01
  C        4                -0.05
  C        5                -0.15
  C        6                -0.05
  C        7                -0.10
  N        1                 0.02
  O        1                -0.27
  O        2                -0.27
  O        3                -0.24
  Si       1                 0.48
======================================
 

Writing analysis data to Conf_0001.castep_bin

Writing model to Conf_0001.check
 
 A BibTeX formatted list of references used in this run has been written to 
 Conf_0001.bib
 
Initialisation time =     24.73 s
Calculation time    =    810.25 s
Finalisation time   =      1.10 s
Total time          =    836.08 s
Peak Memory Use     = 7912424 kB
 
Overall parallel efficiency rating: Satisfactory (66%)
 
Data was distributed by:-
G-vector (48-way); efficiency rating: Satisfactory (66%)
High Water Mark     = 1767352 kB
