 Job started on host drago31060180.mgmt.cc.csic.es
 at Sun Mar 31 00:59:51 2024

 +-------------------------------------------------+
 |                                                 |
 |      CCC   AA    SSS  TTTTT  EEEEE  PPPP        |
 |     C     A  A  S       T    E      P   P       |
 |     C     AAAA   SS     T    EEE    PPPP        |
 |     C     A  A     S    T    E      P           |
 |      CCC  A  A  SSS     T    EEEEE  P           |
 |                                                 |
 +-------------------------------------------------+
 |                                                 |
 | Materials Studio CASTEP version 2024            |
 | Ab Initio Total Energy Program                  |
 |                                                 |
 | Authors:                                        |
 | M. Segall, M. Probert, C. Pickard, P. Hasnip,   |
 | S. Clark, K. Refson, J. R. Yates,               |
 | A. Bartok-Partay, M. Payne                      |
 |                                                 |
 | Contributors:                                   |
 | P. Lindan, P. Haynes, J. White, V. Milman,      |
 | N. Govind, M. Gibson, P. Tulip, V. Cocula,      |
 | B. Montanari, D. Quigley, M. Glover,            |
 | L. Bernasconi, A. Perlov, M. Plummer,           |
 | E. McNellis, J. Meyer, J. Gale, D. Jochym       |
 | J. Aarons, B. Walker, R. Gillen, D. Jones       |
 | T. Green, I. J. Bush, C. J. Armstrong,          |
 | E. J. Higgins, E. L. Brown, M. S. McFly,        |
 | J. Wilkins, B-C. Shih, P. J. P. Byrne,          |
 | R. J. Maurer, J. C. Womack, J. Dziedzic,        |
 | L. LeBlanc, T. K. Stenczel, J. Kermode,         |
 | S. Sturniolo, B. Shi, B. Durham, M. Evans,      |
 | M. J. Smith, A. Tamerus, Z. Hawkhead,           |
 | V. Ravindran, T. Hollins, S. A. Joyce,          |
 | R. T. Strong, A. M. Reilly                      |
 |                                                 |
 | Copyright (c) 2000 - 2023                       |
 |                                                 |
 | Please cite                                     |
 |                                                 |
 |     "First principles methods using CASTEP"     |
 |                                                 |
 |         Zeitschrift fuer Kristallographie       |
 |           220(5-6) pp. 567-570 (2005)           |
 |                                                 |
 | S. J. Clark, M. D. Segall, C. J. Pickard,       |
 | P. J. Hasnip, M. J. Probert, K. Refson,         |
 | M. C. Payne                                     |
 |                                                 |
 |       in all publications arising from          |
 |              your use of CASTEP                 |
 |                                                 |
 +-------------------------------------------------+
 |                                                 |
 |              http://www.castep.org              |
 |                                                 |
 +-------------------------------------------------+
 
 
 This version was compiled for x86_64-rhel7-intel19.0 on Oct 24 2023
 Code version:    a9f326b
 Intel(R) Math Kernel Library Version 2019.0.4 
 Fundamental constants values: CODATA 2018
 
License checkout of MS_castep successful
 
 
 Atomic calculation performed for H: 1s1
 
 Converged in 41 iterations to an ae energy of -12.488 eV
 
 Identity difference: 2.63E-05
 
   ============================================================                
   | Pseudopotential Report - Date of generation 31-03-2024   |                
   ------------------------------------------------------------                
   | Element: H Ionic charge:  1.00 Level of theory: PBE      |                
   | Atomic Solver: Koelling-Harmon                           |                
   |                                                          |                
   |               Reference Electronic Structure             |                
   |         Orbital         Occupation         Energy        |                
   |            1s              1.000           -0.239        |                
   |                                                          |                
   |                 Pseudopotential Definition               |                
   |        Beta     l      e      Rc     scheme   norm       |                
   |          1      0   -0.239   0.599     qc      0         |                
   |          2      0    0.250   0.599     qc      0         |                
   |         loc     1    0.000   0.599     pn      0         |                
   |                                                          |                
   | Augmentation charge Rinner = 0.421                       |                
   | No partial core correction                               |                
   ------------------------------------------------------------                
   | "1|0.6|9|10|15|10UU(qc=8)[]"                             |                
   ------------------------------------------------------------                
   |      Author: Chris J. Pickard, Cambridge University      |                
   ============================================================                
 
 Doing a self consistent calculation for the test configuration
 
 Atomic calculation performed for H: 1s1
 
 Converged in 41 iterations to an ae energy of -12.488 eV
 
 ---------------------------------------
 AE eigenvalue nl 10 =       -0.23860176
 ---------------------------------------
 PS eigenvalue nl 10 =       -0.23857601
 ---------------------------------------
 Maximum eigenvalue error:   2.57E-05
 
 Derived cutoff energies: C=   1 M=   6 F=  10 E=  20
 
 Checking for ghost states up to   1.51185 Ha
 
 No Ghost States Identified
 
 ***************************************
 
 Atomic calculation performed for C: 1s2 2s2 2p2
 
 Converged in 54 iterations to an ae energy of -1027.632 eV
 
 Identity difference: 2.37E-04
 
   ============================================================                
   | Pseudopotential Report - Date of generation 31-03-2024   |                
   ------------------------------------------------------------                
   | Element: C Ionic charge:  4.00 Level of theory: PBE      |                
   | Atomic Solver: Koelling-Harmon                           |                
   |                                                          |                
   |               Reference Electronic Structure             |                
   |         Orbital         Occupation         Energy        |                
   |            2s              2.000           -0.505        |                
   |            2p              2.000           -0.194        |                
   |                                                          |                
   |                 Pseudopotential Definition               |                
   |        Beta     l      e      Rc     scheme   norm       |                
   |          1      0   -0.505   1.395     qc      0         |                
   |          2      0    0.250   1.395     qc      0         |                
   |          3      1   -0.194   1.395     qc      0         |                
   |          4      1    0.250   1.395     qc      0         |                
   |         loc     2    0.000   1.395     pn      0         |                
   |                                                          |                
   | Augmentation charge Rinner = 0.983                       |                
   | Partial core correction Rc = 0.983                       |                
   ------------------------------------------------------------                
   | "2|1.4|11|12|14.7|20UU:21UU(qc=7)[]"                     |                
   ------------------------------------------------------------                
   |      Author: Chris J. Pickard, Cambridge University      |                
   ============================================================                
 
 Doing a self consistent calculation for the test configuration
 
 Atomic calculation performed for C: 1s2 2s2 2p2
 
 Converged in 54 iterations to an ae energy of -1027.632 eV
 
 ---------------------------------------
 AE eigenvalue nl 10 =      -10.04653081
 AE eigenvalue nl 20 =       -0.50533429
 AE eigenvalue nl 21 =       -0.19423807
 ---------------------------------------
 PS eigenvalue nl 20 =       -0.50531853
 PS eigenvalue nl 21 =       -0.19422214
 ---------------------------------------
 Maximum eigenvalue error:   1.59E-05
 
 Derived cutoff energies: C=   6 M=  10 F=  12 E=  16
 
 Checking for ghost states up to   1.47183 Ha
 
 No Ghost States Identified
 
 ***************************************
 
 Atomic calculation performed for N: 1s2 2s2 2p3
 
 Converged in 55 iterations to an ae energy of -1481.742 eV
 
 Identity difference: 2.27E-04
 
   ============================================================                
   | Pseudopotential Report - Date of generation 31-03-2024   |                
   ------------------------------------------------------------                
   | Element: N Ionic charge:  5.00 Level of theory: PBE      |                
   | Atomic Solver: Koelling-Harmon                           |                
   |                                                          |                
   |               Reference Electronic Structure             |                
   |         Orbital         Occupation         Energy        |                
   |            2s              2.000           -0.683        |                
   |            2p              3.000           -0.261        |                
   |                                                          |                
   |                 Pseudopotential Definition               |                
   |        Beta     l      e      Rc     scheme   norm       |                
   |          1      0   -0.683   1.100     qc      0         |                
   |          2      0    0.250   1.100     qc      0         |                
   |          3      1   -0.261   1.100     qc      0         |                
   |          4      1    0.250   1.100     qc      0         |                
   |         loc     2    0.000   1.100     pn      0         |                
   |                                                          |                
   | Augmentation charge Rinner = 0.769                       |                
   | Partial core correction Rc = 0.769                       |                
   ------------------------------------------------------------                
   | "2|1.1|12|16|19|20UU:21UU(qc=7)[]"                       |                
   ------------------------------------------------------------                
   |      Author: Chris J. Pickard, Cambridge University      |                
   ============================================================                
 
 Doing a self consistent calculation for the test configuration
 
 Atomic calculation performed for N: 1s2 2s2 2p3
 
 Converged in 55 iterations to an ae energy of -1481.742 eV
 
 ---------------------------------------
 AE eigenvalue nl 10 =      -14.13820921
 AE eigenvalue nl 20 =       -0.68290611
 AE eigenvalue nl 21 =       -0.26054797
 ---------------------------------------
 PS eigenvalue nl 20 =       -0.68291221
 PS eigenvalue nl 21 =       -0.26051708
 ---------------------------------------
 Maximum eigenvalue error:   3.09E-05
 
 Derived cutoff energies: C=  10 M=  15 F=  18 E=  23
 
 Checking for ghost states up to   1.48495 Ha
 
 No Ghost States Identified
 
 ***************************************
 
 Atomic calculation performed for O: 1s2 2s2 2p4
 
 Converged in 61 iterations to an ae energy of -2040.902 eV
 
 Identity difference: 4.10E-04
 
   ============================================================                
   | Pseudopotential Report - Date of generation 31-03-2024   |                
   ------------------------------------------------------------                
   | Element: O Ionic charge:  6.00 Level of theory: PBE      |                
   | Atomic Solver: Koelling-Harmon                           |                
   |                                                          |                
   |               Reference Electronic Structure             |                
   |         Orbital         Occupation         Energy        |                
   |            2s              2.000           -0.881        |                
   |            2p              4.000           -0.332        |                
   |                                                          |                
   |                 Pseudopotential Definition               |                
   |        Beta     l      e      Rc     scheme   norm       |                
   |          1      0   -0.881   1.100     qc      0         |                
   |          2      0    0.250   1.100     qc      0         |                
   |          3      1   -0.332   1.100     qc      0         |                
   |          4      1    0.250   1.100     qc      0         |                
   |         loc     2    0.000   1.100     pn      0         |                
   |                                                          |                
   | Augmentation charge Rinner = 0.769                       |                
   | Partial core correction Rc = 0.769                       |                
   ------------------------------------------------------------                
   | "2|1.1|14|18|21|20UU:21UU(qc=7)[]"                       |                
   ------------------------------------------------------------                
   |      Author: Chris J. Pickard, Cambridge University      |                
   ============================================================                
 
 Doing a self consistent calculation for the test configuration
 
 Atomic calculation performed for O: 1s2 2s2 2p4
 
 Converged in 61 iterations to an ae energy of -2040.902 eV
 
 ---------------------------------------
 AE eigenvalue nl 10 =      -18.91475256
 AE eigenvalue nl 20 =       -0.88057101
 AE eigenvalue nl 21 =       -0.33186952
 ---------------------------------------
 PS eigenvalue nl 20 =       -0.88059206
 PS eigenvalue nl 21 =       -0.33182157
 ---------------------------------------
 Maximum eigenvalue error:   4.80E-05
 
 Derived cutoff energies: C=  14 M=  17 F=  20 E=  22
 
 Checking for ghost states up to   1.49452 Ha
 
 No Ghost States Identified
 
 ***************************************
 
 Atomic calculation performed for Si: 1s2 2s2 2p6 3s2 3p2
 
 Converged in 54 iterations to an ae energy of -7886.857 eV
 
 Identity difference: 1.35E-04
 
   ============================================================                
   | Pseudopotential Report - Date of generation 31-03-2024   |                
   ------------------------------------------------------------                
   | Element: Si Ionic charge:  4.00 Level of theory: PBE     |                
   | Atomic Solver: Koelling-Harmon                           |                
   |                                                          |                
   |               Reference Electronic Structure             |                
   |         Orbital         Occupation         Energy        |                
   |            3s              2.000           -0.397        |                
   |            3p              2.000           -0.150        |                
   |                                                          |                
   |                 Pseudopotential Definition               |                
   |        Beta     l      e      Rc     scheme   norm       |                
   |          1      0   -0.397   1.797     qc      0         |                
   |          2      0    0.250   1.797     qc      0         |                
   |          3      1   -0.150   1.797     qc      0         |                
   |          4      1    0.250   1.797     qc      0         |                
   |          5      2    0.000   1.797     qc      0         |                
   |          6      2    0.250   1.797     qc      0         |                
   |         loc     3    0.000   1.797     pn      0         |                
   |                                                          |                
   | Augmentation charge Rinner = 1.255                       |                
   | Partial core correction Rc = 1.255                       |                
   ------------------------------------------------------------                
   | "3|1.8|3.6|5|7|30UU:31UU:32UU[]"                         |                
   ------------------------------------------------------------                
   |      Author: Chris J. Pickard, Cambridge University      |                
   ============================================================                
 
 Doing a self consistent calculation for the test configuration
 
 Atomic calculation performed for Si: 1s2 2s2 2p6 3s2 3p2
 
 Converged in 54 iterations to an ae energy of -7886.857 eV
 
 ---------------------------------------
 AE eigenvalue nl 10 =      -65.63192903
 AE eigenvalue nl 20 =       -5.12654326
 AE eigenvalue nl 21 =       -3.51173659
 AE eigenvalue nl 30 =       -0.39736430
 AE eigenvalue nl 31 =       -0.14998156
 ---------------------------------------
 PS eigenvalue nl 30 =       -0.39734922
 PS eigenvalue nl 31 =       -0.14996719
 ---------------------------------------
 Maximum eigenvalue error:   1.51E-05
 
 Derived cutoff energies: C=   1 M=   3 F=   6 E=   6
 
 Checking for ghost states up to   1.41161 Ha
 
 No Ghost States Identified
 
 ***************************************
 
 Pseudo atomic calculation performed for H 1s1
 
 Converged in 13 iterations to a total energy of -12.4790 eV
 
 Pseudo atomic calculation performed for C 2s2 2p2
 
 Converged in 17 iterations to a total energy of -148.5208 eV
 
 Pseudo atomic calculation performed for N 2s2 2p3
 
 Converged in 21 iterations to a total energy of -268.1820 eV
 
 Pseudo atomic calculation performed for O 2s2 2p4
 
 Converged in 23 iterations to a total energy of -432.6536 eV
 
 Pseudo atomic calculation performed for Si 3s2 3p2
 
 Converged in 11 iterations to a total energy of -165.0683 eV
 Calculation parallelised over 48 processes.
 Data is distributed by G-vector(48-way)

 ************************************ Title ************************************
 CASTEP calculation from BIOVIA Materials Studio 2024

 ***************************** General Parameters ******************************
  
 output verbosity                               : normal  (1)
 write checkpoint data to                       : Conf_0009.check
 type of calculation                            : geometry optimization
 stress calculation                             : off
 density difference calculation                 : off
 electron localisation func (ELF) calculation   : off
 Hirshfeld analysis                             : on
 polarisation (Berry phase) analysis            : off
 molecular orbital projected DOS                : off
 deltaSCF calculation                           : off
 unlimited duration calculation
 timing information                             : on
 memory usage estimate                          : on
 write extra output files                       : on
 write final potential to formatted file        : off
 write final density to formatted file          : off
 write BibTeX reference list                    : on
 write OTFG pseudopotential files               : on
 write electrostatic potential file             : on
 write bands file                               : on
 checkpoint writing                             : both castep_bin and check files
  
 output         length unit                     : A
 output           mass unit                     : amu
 output           time unit                     : ps
 output         charge unit                     : e
 output           spin unit                     : hbar/2
 output         energy unit                     : eV
 output          force unit                     : eV/A
 output       velocity unit                     : A/ps
 output       pressure unit                     : GPa
 output     inv_length unit                     : 1/A
 output      frequency unit                     : cm-1
 output force constant unit                     : eV/A**2
 output         volume unit                     : A**3
 output   IR intensity unit                     : (D/A)**2/amu
 output         dipole unit                     : D
 output         efield unit                     : eV/A/e
 output        entropy unit                     : J/mol/K
 output    efield chi2 unit                     : pm/V
  
 wavefunctions paging                           : none
 random number generator seed                   :    5953883
 data distribution                              : optimal for this architecture
 optimization strategy                          : balance speed and memory

 *********************** Exchange-Correlation Parameters ***********************
  
 using functional                               : Perdew Burke Ernzerhof
 relativistic treatment                         : Koelling-Harmon
 DFT+D: Semi-empirical dispersion correction    : on
 SEDC with                                      : G06 correction scheme

 ************************* Pseudopotential Parameters **************************
  
 pseudopotential representation                 : reciprocal space
 <beta|phi> representation                      : reciprocal space
 spin-orbit coupling                            : off

 **************************** Basis Set Parameters *****************************
  
 plane wave basis set cut-off                   :   600.0000   eV
 size of standard grid                          :     1.5000
 size of   fine   gmax                          :    18.8237   1/A
 largest prime factor in FFT                    :          5
 finite basis set correction                    : none

 **************************** Electronic Parameters ****************************
  
 number of  electrons                           :  74.00    
 net charge of system                           : +1.000    
 treating system as non-spin-polarized
 number of bands                                :         37

 ********************* Electronic Minimization Parameters **********************
  
 Method: Treating system as non-metallic,
         and number of  SD  steps               :          1
         and number of  CG  steps               :          4
  
 total energy / atom convergence tol.           : 0.2000E-05   eV
 eigen-energy convergence tolerance             : 0.1000E-05   eV
 max force / atom convergence tol.              : ignored
 convergence tolerance window                   :          3   cycles
 max. number of SCF cycles                      :        100
 periodic dipole correction                     : NONE

 ************************** Density Mixing Parameters **************************
  
 density-mixing scheme                          : Pulay
 max. length of mixing history                  :         20
 charge density mixing amplitude                : 0.5000    
 cut-off energy for mixing                      :  600.0       eV
 charge density mixing g-vector                 :  1.500       1/A

 *********************** Population Analysis Parameters ************************
  
 Population analysis with cutoff                :  3.000       A
 Population analysis output                     : summary and pdos components

 ********************** Geometry Optimization Parameters ***********************
  
 optimization method                            : LBFGS
 max. no. of LBFGS updates                      : unbounded
 preconditioned LBFGS is activated
 preconditioner type                            : EXP
     stabilization constant                     :     0.1000
     parameter A                                :     3.0000
     nearest neighbor distance                  : automatic
     cut-off distance                           : automatic
     parameter mu                               : automatic
 variable cell method                           : fixed basis quality
 max. number of steps                           :        300
 estimated bulk modulus                         :  500.0       GPa
 estimated <frequency>                          :  1668.       cm-1
 geom line minimiser                            : on
 with line minimiser tolerance                  :     0.4000
 total energy convergence tolerance             : 0.2000E-04   eV/atom
        max ionic |force| tolerance             : 0.5000E-01   eV/A
 max ionic |displacement| tolerance             : 0.2000E-02   A
   max |stress component| tolerance             : 0.1000       GPa
 convergence tolerance window                   :          2   steps
 backup results every                           :          5   steps
 write geom trajectory file                     : on

 *******************************************************************************
  
 
                           -------------------------------
                                      Unit Cell
                           -------------------------------
        Real Lattice(A)                      Reciprocal Lattice(1/A)
    13.4840002    -0.0000006    -0.0000006        0.465973392   0.000000000   0.000000000
     0.0000000    20.4006996    -0.0000009        0.000000013   0.307988717   0.000000000
     0.0000000     0.0000000    45.0000000        0.000000006   0.000000006   0.139626340
 
                       Lattice parameters(A)       Cell Angles
                    a =     13.484000          alpha =   90.000003
                    b =     20.400700          beta  =   90.000003
                    c =     45.000000          gamma =   90.000003
 
                       Current cell volume =         12378.736702       A**3
                                   density =             0.015698   AMU/A**3
                                           =             0.026068     g/cm^3
 
                           -------------------------------
                                     Cell Contents
                           -------------------------------
                         Total number of ions in cell =   32
                      Total number of species in cell =    5
                        Max number of any one species =   20
 
            xxxxxxxxxxxxxxxxxxxxxxxxxxxxxxxxxxxxxxxxxxxxxxxxxxxxxxxxxxxx
            x  Element    Atom        Fractional coordinates of atoms  x
            x            Number           u          v          w      x
            x----------------------------------------------------------x
            x  H            1         0.512408   0.483516   0.536305   x 
            x  H            2         0.587304   0.556325   0.537013   x 
            x  H            3         0.421232   0.523411   0.582111   x 
            x  H            4         0.496006   0.595089   0.582732   x 
            x  H            5         0.448706   0.514025   0.486795   x 
            x  H            6         0.381406   0.588534   0.482431   x 
            x  H            7         0.608860   0.573590   0.485128   x 
            x  H            8         0.549091   0.650329   0.489063   x 
            x  H            9         0.599028   0.636058   0.437187   x 
            x  H           10         0.468727   0.637533   0.439396   x 
            x  H           11         0.683896   0.488206   0.417176   x 
            x  H           12         0.518681   0.504867   0.373670   x 
            x  H           13         0.414665   0.448951   0.422416   x 
            x  H           14         0.366745   0.553565   0.530831   x 
            x  H           15         0.434829   0.620312   0.531216   x 
            x  H           16         0.572687   0.453999   0.590161   x 
            x  H           17         0.647667   0.525262   0.590616   x 
            x  H           18         0.609513   0.487843   0.642298   x 
            x  H           19         0.480169   0.495049   0.635372   x 
            x  H           20         0.556495   0.566341   0.635896   x 
            x  C            1         0.515001   0.535276   0.543326   x 
            x  C            2         0.495543   0.542675   0.576615   x 
            x  C            3         0.448767   0.566693   0.492296   x 
            x  C            4         0.540791   0.600848   0.479432   x 
            x  C            5         0.534385   0.607767   0.445148   x 
            x  C            6         0.572573   0.506749   0.595758   x 
            x  C            7         0.553563   0.514452   0.629103   x 
            x  N            1         0.433744   0.572416   0.525466   x 
            x  O            1         0.521806   0.540200   0.387333   x 
            x  O            2         0.432502   0.486420   0.433742   x 
            x  O            3         0.627338   0.483445   0.429541   x 
            x  Si           1         0.529598   0.528152   0.422984   x 
            xxxxxxxxxxxxxxxxxxxxxxxxxxxxxxxxxxxxxxxxxxxxxxxxxxxxxxxxxxxx
 
 
                         No user defined ionic velocities
 
                           -------------------------------
                                   Details of Species
                           -------------------------------
 
                               Mass of species in AMU
                                    H    1.0080000
                                    C   12.0109997
                                    N   14.0070000
                                    O   15.9989996
                                    Si   28.0849991
 
                          Electric Quadrupole Moment (Barn)
                                    H    0.0028600 Isotope  2
                                    C    0.0332700 Isotope 11
                                    N    0.0204400 Isotope 14
                                    O   -0.0255800 Isotope 17
                                    Si    1.0000000 No Isotope Defined
 
                          Files used for pseudopotentials:
                                    H 1|0.6|9|10|15|10UU(qc=8)[]
                                    C 2|1.4|11|12|14.7|20UU:21UU(qc=7)[]
                                    N 2|1.1|12|16|19|20UU:21UU(qc=7)[]
                                    O 2|1.1|14|18|21|20UU:21UU(qc=7)[]
                                    Si 3|1.8|3.6|5|7|30UU:31UU:32UU[]
 
                           -------------------------------
                              k-Points For BZ Sampling
                           -------------------------------
                       MP grid size for SCF calculation is  1  1  1
                            with an offset of   0.000  0.000  0.000
                       Number of kpoints used =             1
 
                           -------------------------------
                               Symmetry and Constraints
                           -------------------------------
 
                      Maximum deviation from symmetry =  0.00000         ANG
 
                      Number of symmetry operations   =           1
                      Number of nonlinear constraints =           3
         There are no ionic constraints specified or generated for this cell
                      Point group of crystal =     1: C1, 1, 1
                      Space group of crystal =     1: P1, P 1
 
             Set iprint > 1 for details on symmetry rotations/translations
 
                         Centre of mass is NOT constrained
 
                         Number of cell constraints= 6
                         Cell constraints are:  0 0 0 0 0 0
 
                         External pressure/stress (GPa)
                          0.00000   0.00000   0.00000
                                    0.00000   0.00000
                                              0.00000
 
                                --------------------
                                  DFT-D parameters
                                --------------------
 
                          Dispersion-correction scheme : G06       
                        Parameter s6 :   0.750000 (default)
                        Parameter d  :  20.000000 (default)
 
        xxxxxxxxxxxxxxxxxxxxxxxxxxxxxxxxxxxxxxxxxxxxxxxxxxxxxxxxxxxxxxxxxxxx
        x              Atomic DFT-D parameters                             x
        x  Species      C6            R0                                   x
        x               eV A^6        Ang                                  x
        x------------------------------------------------------------------x
        x  H             1.4510       1.0010   (default)                   x
        x  C            18.1375       1.4520   (default)                   x
        x  N            12.7481       1.3970   (default)                   x
        x  O             7.2550       1.3420   (default)                   x
        x  Si           95.6622       1.7160   (default)                   x
        xxxxxxxxxxxxxxxxxxxxxxxxxxxxxxxxxxxxxxxxxxxxxxxxxxxxxxxxxxxxxxxxxxxx
 
 
+---------------- MEMORY AND SCRATCH DISK ESTIMATES PER PROCESS --------------+
|                                                     Memory          Disk    |
| Baseline code, static data and system overhead     6531.0 MB         0.0 MB |
| BLAS internal memory storage                          0.0 MB         0.0 MB |
| Model and support data                              540.6 MB         0.0 MB |
| Electronic energy minimisation requirements          31.8 MB         0.0 MB |
| Force calculation requirements                        6.8 MB         0.0 MB |
|                                               ----------------------------- |
| Approx. total storage required per process         7103.3 MB         0.0 MB |
|                                                                             |
| Requirements will fluctuate during execution and may exceed these estimates |
+-----------------------------------------------------------------------------+
Calculating approximate eigenstates for fixed initial Hamiltonian
Cut-off for approx. calculation is  119.774 eV
Improving approx. states at cut-off of  300.000 eV
Resetting cut-off to  600.000 eV
Calculating total energy with cut-off of  600.000 eV.
------------------------------------------------------------------------ <-- SCF
SCF loop      Energy                           Energy gain       Timer   <-- SCF
                                               per atom          (sec)   <-- SCF
------------------------------------------------------------------------ <-- SCF
Initial  -2.92890303E+003                                         30.44  <-- SCF
      1  -3.20294021E+003                    8.56366183E+000      31.29  <-- SCF
      2  -3.20317299E+003                    7.27449710E-003      32.07  <-- SCF
      3  -3.19284181E+003                   -3.22849382E-001      33.20  <-- SCF
      4  -3.19163680E+003                   -3.76566459E-002      34.37  <-- SCF
      5  -3.19103697E+003                   -1.87447299E-002      35.37  <-- SCF
      6  -3.19094515E+003                   -2.86924123E-003      36.64  <-- SCF
      7  -3.19088584E+003                   -1.85364711E-003      37.65  <-- SCF
      8  -3.19087816E+003                   -2.40051190E-004      38.75  <-- SCF
      9  -3.19086712E+003                   -3.44851247E-004      39.75  <-- SCF
     10  -3.19085304E+003                   -4.40034469E-004      40.79  <-- SCF
     11  -3.19082656E+003                   -8.27597810E-004      41.83  <-- SCF
     12  -3.19076809E+003                   -1.82694166E-003      42.86  <-- SCF
     13  -3.19069952E+003                   -2.14308132E-003      43.87  <-- SCF
     14  -3.19063827E+003                   -1.91392496E-003      44.84  <-- SCF
     15  -3.19058628E+003                   -1.62481347E-003      45.85  <-- SCF
     16  -3.19054215E+003                   -1.37883349E-003      46.84  <-- SCF
     17  -3.19051092E+003                   -9.75930784E-004      47.81  <-- SCF
     18  -3.19048592E+003                   -7.81261606E-004      48.79  <-- SCF
     19  -3.19045852E+003                   -8.56374343E-004      49.77  <-- SCF
     20  -3.19043212E+003                   -8.24859692E-004      50.74  <-- SCF
     21  -3.19040741E+003                   -7.72227577E-004      51.67  <-- SCF
     22  -3.19039481E+003                   -3.93736968E-004      52.65  <-- SCF
     23  -3.19039228E+003                   -7.92194509E-005      53.69  <-- SCF
     24  -3.19039503E+003                    8.59484922E-005      54.68  <-- SCF
     25  -3.19039742E+003                    7.47304442E-005      55.61  <-- SCF
     26  -3.19040242E+003                    1.56322199E-004      56.43  <-- SCF
     27  -3.19040702E+003                    1.43712619E-004      57.22  <-- SCF
     28  -3.19041095E+003                    1.22769171E-004      58.04  <-- SCF
     29  -3.19041484E+003                    1.21484228E-004      58.83  <-- SCF
     30  -3.19041693E+003                    6.54202199E-005      59.62  <-- SCF
     31  -3.19041930E+003                    7.40412690E-005      60.41  <-- SCF
     32  -3.19042062E+003                    4.12881222E-005      61.24  <-- SCF
     33  -3.19042230E+003                    5.24040800E-005      62.03  <-- SCF
     34  -3.19042312E+003                    2.58269647E-005      62.82  <-- SCF
     35  -3.19042376E+003                    1.97598162E-005      63.61  <-- SCF
     36  -3.19042446E+003                    2.18700093E-005      64.40  <-- SCF
     37  -3.19042483E+003                    1.16649840E-005      65.19  <-- SCF
     38  -3.19042512E+003                    9.08081944E-006      65.98  <-- SCF
     39  -3.19042538E+003                    8.24535397E-006      66.78  <-- SCF
     40  -3.19042569E+003                    9.45382341E-006      67.57  <-- SCF
     41  -3.19042597E+003                    9.00992361E-006      68.36  <-- SCF
     42  -3.19042612E+003                    4.51129593E-006      69.17  <-- SCF
     43  -3.19042626E+003                    4.55300096E-006      69.96  <-- SCF
     44  -3.19042643E+003                    5.18107016E-006      70.76  <-- SCF
     45  -3.19042653E+003                    3.16473605E-006      71.55  <-- SCF
     46  -3.19042659E+003                    1.75947692E-006      72.33  <-- SCF
     47  -3.19042662E+003                    1.05610935E-006      73.12  <-- SCF
     48  -3.19042667E+003                    1.56823377E-006      73.91  <-- SCF
     49  -3.19042668E+003                    3.27284099E-007      74.70  <-- SCF
------------------------------------------------------------------------ <-- SCF
 
Final energy =  -3190.426682653     eV
(energy not corrected for finite basis set)
 
(SEDC) Total Energy Correction : -0.764182E+00 eV

Dispersion corrected final energy* =  -3191.190864979     eV

Writing analysis data to Conf_0009.castep_bin

Writing model to Conf_0009.check

WARNING - nonlinear constraints cannot be used with LBFGS algorithm
        - consider setting geom_method=DELOCALIZED
 
        => Turning nonlinear constraints OFF
 
+---------------- MEMORY AND SCRATCH DISK ESTIMATES PER PROCESS --------------+
|                                                     Memory          Disk    |
| Model and support data                              550.1 MB         0.0 MB |
| Electronic energy minimisation requirements          31.8 MB         0.0 MB |
| Geometry minimisation requirements                   34.8 MB         0.0 MB |
|                                               ----------------------------- |
| Approx. total storage required per process          616.7 MB         0.0 MB |
|                                                                             |
| Requirements will fluctuate during execution and may exceed these estimates |
+-----------------------------------------------------------------------------+
 
 
 ************************************** Forces **************************************
 *                                                                                  *
 *                           Cartesian components (eV/A)                            *
 * -------------------------------------------------------------------------------- *
 *                         x                    y                    z              *
 *                                                                                  *
 * H               1     -0.11238              0.22756             -0.07207         *
 * H               2     -0.27840             -0.00526             -0.07969         *
 * H               3      0.01121              0.02101             -0.04916         *
 * H               4     -0.00827              0.00803             -0.05609         *
 * H               5     -0.06110              0.17655              0.07352         *
 * H               6      0.09934             -0.11597             -0.04318         *
 * H               7     -0.11500             -0.03821              0.04885         *
 * H               8     -0.11787              0.01381              0.05838         *
 * H               9     -0.09201             -0.13634              0.07962         *
 * H              10      0.06245             -0.03748              0.02440         *
 * H              11      0.79319              0.11277             -0.56939         *
 * H              12     -0.01627             -0.69817             -0.67849         *
 * H              13     -0.26866             -0.80722             -0.50614         *
 * H              14     -0.61229             -0.18685              0.21618         *
 * H              15      0.00100              0.67307              0.31708         *
 * H              16     -0.03038              0.08370             -0.08308         *
 * H              17     -0.11351             -0.02473             -0.08558         *
 * H              18     -0.08221              0.04168             -0.15974         *
 * H              19      0.03109              0.00254             -0.05329         *
 * H              20      0.00142             -0.09151             -0.04652         *
 * C               1     -0.40338              0.33641              0.35806         *
 * C               2      0.01730             -0.01198              0.02519         *
 * C               3     -0.42145              0.03967             -0.77332         *
 * C               4      0.17931             -0.07667              0.15244         *
 * C               5     -0.36531             -0.27384             -0.22022         *
 * C               6      0.21412             -0.17309              0.00964         *
 * C               7     -0.08562              0.06098              0.12159         *
 * N               1      2.09179             -1.00448             -0.25093         *
 * O               1      0.10730              1.54615              0.23688         *
 * O               2     -0.22392              0.63918              1.26074         *
 * O               3     -0.19354             -0.47278              1.06775         *
 * Si              1     -0.00795              0.17144             -0.32342         *
 *                                                                                  *
 ************************************************************************************
 EXP precond LBFGS => estimated nearest neighbor distance :  1.626       A
 EXP precond LBFGS => estimated cutoff distance :  3.253       A
 doing test perturbation to get energy scale for EXP preconditioner
 
                           -------------------------------
                                     Cell Contents
                           -------------------------------
 
            xxxxxxxxxxxxxxxxxxxxxxxxxxxxxxxxxxxxxxxxxxxxxxxxxxxxxxxxxxxxxxxxx
            x  Element         Atom        Fractional coordinates of atoms  x
            x                 Number           u          v          w      x
            x---------------------------------------------------------------x
            x  H                 1         0.513613   0.484054   0.536634   x
            x  H                 2         0.588463   0.556620   0.537342   x
            x  H                 3         0.422402   0.523823   0.582410   x
            x  H                 4         0.497212   0.595237   0.583030   x
            x  H                 5         0.449898   0.514468   0.487146   x
            x  H                 6         0.382531   0.588708   0.482783   x
            x  H                 7         0.609993   0.573821   0.485480   x
            x  H                 8         0.550281   0.650259   0.489413   x
            x  H                 9         0.600174   0.636045   0.437548   x
            x  H                10         0.469928   0.637514   0.439756   x
            x  H                11         0.684901   0.488730   0.417538   x
            x  H                12         0.519885   0.505340   0.374026   x
            x  H                13         0.415829   0.449582   0.422778   x
            x  H                14         0.367849   0.553870   0.531163   x
            x  H                15         0.436011   0.620360   0.531547   x
            x  H                16         0.573860   0.454617   0.590454   x
            x  H                17         0.648741   0.525667   0.590908   x
            x  H                18         0.610645   0.488368   0.642544   x
            x  H                19         0.481373   0.495552   0.635625   x
            x  H                20         0.557681   0.566598   0.636149   x
            x  C                 1         0.516206   0.535647   0.543651   x
            x  C                 2         0.496749   0.543020   0.576918   x
            x  C                 3         0.449959   0.566950   0.492645   x
            x  C                 4         0.541986   0.600973   0.479786   x
            x  C                 5         0.535584   0.607865   0.445508   x
            x  C                 6         0.573746   0.507216   0.596047   x
            x  C                 7         0.554751   0.514893   0.629362   x
            x  N                 1         0.434925   0.572651   0.525801   x
            x  O                 1         0.523009   0.540553   0.387692   x
            x  O                 2         0.433682   0.486949   0.434103   x
            x  O                 3         0.628446   0.483983   0.429902   x
            x  Si                1         0.530798   0.528547   0.423345   x
            xxxxxxxxxxxxxxxxxxxxxxxxxxxxxxxxxxxxxxxxxxxxxxxxxxxxxxxxxxxxxxxxx
 
 
------------------------------------------------------------------------ <-- SCF
SCF loop      Energy                           Energy gain       Timer   <-- SCF
                                               per atom          (sec)   <-- SCF
------------------------------------------------------------------------ <-- SCF
Initial  -3.19230834E+003                                         76.72  <-- SCF
      1  -3.19040787E+003                   -5.93895018E-002      77.51  <-- SCF
      2  -3.19043208E+003                    7.56589648E-004      78.66  <-- SCF
      3  -3.19040443E+003                   -8.64211314E-004      79.66  <-- SCF
      4  -3.19042253E+003                    5.65737482E-004      80.66  <-- SCF
      5  -3.19042283E+003                    9.39463764E-006      81.45  <-- SCF
      6  -3.19042307E+003                    7.39010218E-006      82.21  <-- SCF
      7  -3.19042315E+003                    2.53583115E-006      82.98  <-- SCF
      8  -3.19042321E+003                    1.95946543E-006      83.74  <-- SCF
      9  -3.19042325E+003                    1.25373310E-006      84.50  <-- SCF
     10  -3.19042329E+003                    1.23826541E-006      85.26  <-- SCF
     11  -3.19042331E+003                    7.06548112E-007      86.03  <-- SCF
------------------------------------------------------------------------ <-- SCF
 
Final energy =  -3190.423314705     eV
(energy not corrected for finite basis set)
 
(SEDC) Total Energy Correction : -0.764266E+00 eV

Dispersion corrected final energy* =  -3191.187580908     eV
 
 ************************************** Forces **************************************
 *                                                                                  *
 *                           Cartesian components (eV/A)                            *
 * -------------------------------------------------------------------------------- *
 *                         x                    y                    z              *
 *                                                                                  *
 * H               1     -0.11462              0.12073             -0.09534         *
 * H               2     -0.25722              0.01876             -0.10168         *
 * H               3      0.01550              0.00909             -0.05143         *
 * H               4     -0.01449              0.12847             -0.02388         *
 * H               5     -0.06374              0.05876              0.06815         *
 * H               6      0.12061             -0.10694             -0.04315         *
 * H               7     -0.08877             -0.08299              0.04597         *
 * H               8     -0.09441              0.12609              0.08329         *
 * H               9     -0.06463             -0.09153              0.07196         *
 * H              10      0.04425              0.00018              0.00956         *
 * H              11      0.83471              0.12047             -0.61842         *
 * H              12     -0.00283             -0.76702             -0.74591         *
 * H              13     -0.31226             -0.87787             -0.54496         *
 * H              14     -0.59976             -0.19554              0.22591         *
 * H              15     -0.00251              0.83588              0.36467         *
 * H              16     -0.02820             -0.01321             -0.09163         *
 * H              17     -0.07398             -0.00146             -0.08381         *
 * H              18     -0.06363              0.04501             -0.13228         *
 * H              19      0.03156             -0.00920             -0.03974         *
 * H              20      0.00886              0.02220             -0.01189         *
 * C               1     -0.42838              0.37132              0.37463         *
 * C               2     -0.00640             -0.07359              0.00415         *
 * C               3     -0.44121              0.10046             -0.75765         *
 * C               4      0.14280             -0.11310              0.11085         *
 * C               5     -0.37528             -0.25695             -0.18072         *
 * C               6      0.19454             -0.15289              0.02768         *
 * C               7     -0.10437              0.00385              0.10171         *
 * N               1      2.06768             -1.16418             -0.34438         *
 * O               1      0.09264              1.61399              0.28350         *
 * O               2     -0.22316              0.68480              1.31583         *
 * O               3     -0.15105             -0.53230              1.11518         *
 * Si              1     -0.04223              0.17869             -0.33615         *
 *                                                                                  *
 ************************************************************************************
 EXP precond LBFGS => estimated parameter mu :  1.891       eV/A**2
 LBFGS: finished iteration     0 with enthalpy= -3.19119086E+003 eV
  
 +-----------+-----------------+-----------------+------------+-----+ <-- LBFGS
 | Parameter |      value      |    tolerance    |    units   | OK? | <-- LBFGS
 +-----------+-----------------+-----------------+------------+-----+ <-- LBFGS
 |  dE/ion   |   0.000000E+000 |   2.000000E-005 |         eV | No  | <-- LBFGS
 |  |F|max   |   2.397748E+000 |   5.000000E-002 |       eV/A | No  | <-- LBFGS
 |  |dR|max  |   7.750798E-015 |   2.000000E-003 |          A | No  | <-- LBFGS
 +-----------+-----------------+-----------------+------------+-----+ <-- LBFGS
  

================================================================================
 Starting LBFGS iteration          1 ...
================================================================================
  
 +------------+-------------+-------------+-----------------+ <-- min LBFGS
 |    Step    |   lambda    |   F.delta'  |    enthalpy     | <-- min LBFGS
 +------------+-------------+-------------+-----------------+ <-- min LBFGS
 |  previous  |    0.000000 |    1.820408 |    -3191.190865 | <-- min LBFGS
 +------------+-------------+-------------+-----------------+ <-- min LBFGS
  

--------------------------------------------------------------------------------
 LBFGS: starting iteration         1 with trial guess (lambda=  1.000000)
--------------------------------------------------------------------------------
 
                           -------------------------------
                                     Cell Contents
                           -------------------------------
 
            xxxxxxxxxxxxxxxxxxxxxxxxxxxxxxxxxxxxxxxxxxxxxxxxxxxxxxxxxxxxxxxxx
            x  Element         Atom        Fractional coordinates of atoms  x
            x                 Number           u          v          w      x
            x---------------------------------------------------------------x
            x  H                 1         0.510960   0.484554   0.535892   x
            x  H                 2         0.584879   0.556353   0.536621   x
            x  H                 3         0.420937   0.523274   0.581372   x
            x  H                 4         0.495613   0.594921   0.581983   x
            x  H                 5         0.448087   0.513732   0.486539   x
            x  H                 6         0.382111   0.586813   0.481837   x
            x  H                 7         0.607045   0.572016   0.485281   x
            x  H                 8         0.547377   0.648859   0.489206   x
            x  H                 9         0.595963   0.633787   0.437583   x
            x  H                10         0.466754   0.635781   0.439621   x
            x  H                11         0.698721   0.488729   0.418893   x
            x  H                12         0.520997   0.510303   0.372232   x
            x  H                13         0.408220   0.446592   0.424830   x
            x  H                14         0.367261   0.551385   0.530903   x
            x  H                15         0.438547   0.621128   0.531464   x
            x  H                16         0.571603   0.453997   0.589012   x
            x  H                17         0.646020   0.524769   0.589462   x
            x  H                18         0.607412   0.487719   0.640802   x
            x  H                19         0.478903   0.494761   0.634123   x
            x  H                20         0.555019   0.565631   0.634661   x
            x  C                 1         0.513358   0.535939   0.543306   x
            x  C                 2         0.495103   0.542497   0.575971   x
            x  C                 3         0.447928   0.565546   0.491196   x
            x  C                 4         0.540035   0.599188   0.479563   x
            x  C                 5         0.531012   0.605631   0.445201   x
            x  C                 6         0.572169   0.506089   0.594745   x
            x  C                 7         0.551848   0.514219   0.628001   x
            x  N                 1         0.441874   0.569527   0.525083   x
            x  O                 1         0.524487   0.551770   0.387450   x
            x  O                 2         0.427211   0.488767   0.438249   x
            x  O                 3         0.635633   0.482420   0.433411   x
            x  Si                1         0.530637   0.531200   0.424061   x
            xxxxxxxxxxxxxxxxxxxxxxxxxxxxxxxxxxxxxxxxxxxxxxxxxxxxxxxxxxxxxxxxx
 
 
------------------------------------------------------------------------ <-- SCF
SCF loop      Energy                           Energy gain       Timer   <-- SCF
                                               per atom          (sec)   <-- SCF
------------------------------------------------------------------------ <-- SCF
Initial  -3.21028394E+003                                         87.36  <-- SCF
      1  -3.18618100E+003                   -7.53216870E-001      88.15  <-- SCF
      2  -3.18977214E+003                    1.12223009E-001      89.42  <-- SCF
      3  -3.18906327E+003                   -2.21521440E-002      90.54  <-- SCF
      4  -3.18914439E+003                    2.53501339E-003      91.66  <-- SCF
      5  -3.18918839E+003                    1.37489714E-003      92.77  <-- SCF
      6  -3.18919185E+003                    1.08282905E-004      93.92  <-- SCF
      7  -3.18919269E+003                    2.62144112E-005      94.79  <-- SCF
      8  -3.18919316E+003                    1.47038218E-005      95.61  <-- SCF
      9  -3.18919348E+003                    9.89841404E-006      96.49  <-- SCF
     10  -3.18919361E+003                    4.14271084E-006      97.25  <-- SCF
     11  -3.18919373E+003                    3.83995566E-006      98.04  <-- SCF
     12  -3.18919378E+003                    1.55922256E-006      98.81  <-- SCF
     13  -3.18919389E+003                    3.28867401E-006      99.58  <-- SCF
     14  -3.18919404E+003                    4.59275647E-006     100.34  <-- SCF
     15  -3.18919417E+003                    4.21625932E-006     101.11  <-- SCF
     16  -3.18919432E+003                    4.78457005E-006     101.88  <-- SCF
     17  -3.18919446E+003                    4.35615635E-006     102.66  <-- SCF
     18  -3.18919459E+003                    4.07976560E-006     103.43  <-- SCF
     19  -3.18919476E+003                    5.34115110E-006     104.21  <-- SCF
     20  -3.18919484E+003                    2.28788695E-006     104.99  <-- SCF
     21  -3.18919492E+003                    2.50576860E-006     105.79  <-- SCF
     22  -3.18919495E+003                    1.06250783E-006     106.59  <-- SCF
     23  -3.18919501E+003                    1.96856939E-006     107.37  <-- SCF
     24  -3.18919503E+003                    4.34532932E-007     108.16  <-- SCF
     25  -3.18919503E+003                    1.85781737E-007     108.94  <-- SCF
------------------------------------------------------------------------ <-- SCF
 
Final energy =  -3189.195034182     eV
(energy not corrected for finite basis set)
 
(SEDC) Total Energy Correction : -0.773555E+00 eV

Dispersion corrected final energy* =  -3189.968588776     eV
 
 ************************************** Forces **************************************
 *                                                                                  *
 *                           Cartesian components (eV/A)                            *
 * -------------------------------------------------------------------------------- *
 *                         x                    y                    z              *
 *                                                                                  *
 * H               1      0.15773             -0.07681              0.13071         *
 * H               2      0.37016             -0.08202              0.15297         *
 * H               3     -0.09622              0.01188              0.04778         *
 * H               4     -0.00541              0.04313              0.06735         *
 * H               5     -0.02049             -0.58225             -0.31349         *
 * H               6     -0.75394              0.36800             -0.05622         *
 * H               7      0.21867             -0.19422              0.03251         *
 * H               8     -0.08980             -0.06256             -0.02788         *
 * H               9     -0.00138              0.06811             -0.09231         *
 * H              10     -0.27538              0.12260             -0.06106         *
 * H              11     -3.03938             -0.31489              2.12541         *
 * H              12      0.21887              2.99955              2.43822         *
 * H              13      0.90974              2.87564              2.08980         *
 * H              14      1.98405              0.73699             -0.44337         *
 * H              15      0.16844             -1.83818             -0.50498         *
 * H              16     -0.00152             -0.25323             -0.10894         *
 * H              17      0.29059              0.07899             -0.09669         *
 * H              18      0.21112             -0.16174              0.21535         *
 * H              19     -0.13980             -0.06151             -0.01012         *
 * H              20     -0.02480              0.22495              0.02338         *
 * C               1      1.39179             -1.05653             -0.36116         *
 * C               2     -0.18291              0.16252              0.40905         *
 * C               3      1.14793             -0.11716              1.05728         *
 * C               4     -0.20154              0.24876             -0.57404         *
 * C               5      0.67515              1.39573              1.07270         *
 * C               6     -0.27502              0.18712              0.18012         *
 * C               7      0.00943             -0.10305             -0.25773         *
 * N               1     -4.43859              2.52505              0.32887         *
 * O               1     -0.08465             -3.52297             -0.83991         *
 * O               2      0.76229             -2.08228             -3.00662         *
 * O               3      0.84804              1.66164             -2.70559         *
 * Si              1      0.26683             -3.20125             -0.91139         *
 *                                                                                  *
 ************************************************************************************
  
 +------------+-------------+-------------+-----------------+ <-- min LBFGS
 |    Step    |   lambda    |   F.delta'  |    enthalpy     | <-- min LBFGS
 +------------+-------------+-------------+-----------------+ <-- min LBFGS
 |  previous  |    0.000000 |    1.820408 |    -3191.190865 | <-- min LBFGS
 | trial step |    1.000000 |   -4.503259 |    -3189.968589 | <-- min LBFGS
 +------------+-------------+-------------+-----------------+ <-- min LBFGS
  

--------------------------------------------------------------------------------
 LBFGS: improving iteration         1 with line minimization (lambda=  0.287872)
--------------------------------------------------------------------------------
 
                           -------------------------------
                                     Cell Contents
                           -------------------------------
 
            xxxxxxxxxxxxxxxxxxxxxxxxxxxxxxxxxxxxxxxxxxxxxxxxxxxxxxxxxxxxxxxxx
            x  Element         Atom        Fractional coordinates of atoms  x
            x                 Number           u          v          w      x
            x---------------------------------------------------------------x
            x  H                 1         0.511991   0.483815   0.536186   x
            x  H                 2         0.586606   0.556333   0.536900   x
            x  H                 3         0.421147   0.523372   0.581898   x
            x  H                 4         0.495893   0.595040   0.582516   x
            x  H                 5         0.448528   0.513940   0.486721   x
            x  H                 6         0.381609   0.588039   0.482260   x
            x  H                 7         0.608337   0.573137   0.485172   x
            x  H                 8         0.548597   0.649906   0.489104   x
            x  H                 9         0.598146   0.635404   0.437301   x
            x  H                10         0.468159   0.637029   0.439461   x
            x  H                11         0.688164   0.488357   0.417670   x
            x  H                12         0.519348   0.506432   0.373256   x
            x  H                13         0.412809   0.448272   0.423111   x
            x  H                14         0.366893   0.552937   0.530852   x
            x  H                15         0.435899   0.620547   0.531287   x
            x  H                16         0.572375   0.453998   0.589830   x
            x  H                17         0.647193   0.525120   0.590283   x
            x  H                18         0.608908   0.487807   0.641867   x
            x  H                19         0.479805   0.494966   0.635012   x
            x  H                20         0.556070   0.566136   0.635541   x
            x  C                 1         0.514528   0.535467   0.543320   x
            x  C                 2         0.495416   0.542624   0.576430   x
            x  C                 3         0.448526   0.566363   0.491979   x
            x  C                 4         0.540573   0.600370   0.479470   x
            x  C                 5         0.533414   0.607152   0.445163   x
            x  C                 6         0.572457   0.506559   0.595467   x
            x  C                 7         0.553069   0.514385   0.628786   x
            x  N                 1         0.436084   0.571584   0.525356   x
            x  O                 1         0.522578   0.543531   0.387367   x
            x  O                 2         0.430979   0.487095   0.435039   x
            x  O                 3         0.629726   0.483150   0.430655   x
            x  Si                1         0.529897   0.529029   0.423294   x
            xxxxxxxxxxxxxxxxxxxxxxxxxxxxxxxxxxxxxxxxxxxxxxxxxxxxxxxxxxxxxxxxx
 
 
------------------------------------------------------------------------ <-- SCF
SCF loop      Energy                           Energy gain       Timer   <-- SCF
                                               per atom          (sec)   <-- SCF
------------------------------------------------------------------------ <-- SCF
Initial  -3.21195287E+003                                        110.27  <-- SCF
      1  -3.18970875E+003                   -6.95128667E-001     111.13  <-- SCF
      2  -3.19087028E+003                    3.62975519E-002     112.22  <-- SCF
      3  -3.19042131E+003                   -1.40301638E-002     113.22  <-- SCF
      4  -3.19053822E+003                    3.65343132E-003     114.33  <-- SCF
      5  -3.19057616E+003                    1.18572715E-003     115.37  <-- SCF
      6  -3.19057717E+003                    3.14306695E-005     116.31  <-- SCF
      7  -3.19057744E+003                    8.41070385E-006     117.11  <-- SCF
      8  -3.19057750E+003                    1.76520134E-006     117.88  <-- SCF
      9  -3.19057751E+003                    4.06965444E-007     118.70  <-- SCF
     10  -3.19057773E+003                    6.92154218E-006     119.47  <-- SCF
     11  -3.19057782E+003                    2.93458610E-006     120.23  <-- SCF
     12  -3.19057827E+003                    1.40238027E-005     121.01  <-- SCF
     13  -3.19057840E+003                    3.88778883E-006     121.79  <-- SCF
     14  -3.19057873E+003                    1.04314124E-005     122.56  <-- SCF
     15  -3.19057883E+003                    3.04671969E-006     123.33  <-- SCF
     16  -3.19057904E+003                    6.75199969E-006     124.10  <-- SCF
     17  -3.19057915E+003                    3.35048990E-006     124.87  <-- SCF
     18  -3.19057934E+003                    5.75213253E-006     125.64  <-- SCF
     19  -3.19057939E+003                    1.57653784E-006     126.41  <-- SCF
     20  -3.19057953E+003                    4.39549664E-006     127.19  <-- SCF
     21  -3.19057954E+003                    5.02519495E-007     127.97  <-- SCF
     22  -3.19057965E+003                    3.46394150E-006     128.75  <-- SCF
     23  -3.19057966E+003                    1.33906375E-007     129.54  <-- SCF
     24  -3.19057970E+003                    1.36761050E-006     130.32  <-- SCF
------------------------------------------------------------------------ <-- SCF
 
Final energy =  -3190.579701461     eV
(energy not corrected for finite basis set)
 
(SEDC) Total Energy Correction : -0.767818E+00 eV

Dispersion corrected final energy* =  -3191.347519097     eV
 
 ************************************** Forces **************************************
 *                                                                                  *
 *                           Cartesian components (eV/A)                            *
 * -------------------------------------------------------------------------------- *
 *                         x                    y                    z              *
 *                                                                                  *
 * H               1     -0.04317              0.15586             -0.01584         *
 * H               2     -0.11603             -0.02126             -0.01711         *
 * H               3     -0.02256              0.02334             -0.01969         *
 * H               4     -0.01132              0.02183             -0.02273         *
 * H               5     -0.05365             -0.02758             -0.04049         *
 * H               6     -0.13364              0.01816             -0.03845         *
 * H               7     -0.02513             -0.07430              0.04320         *
 * H               8     -0.11855             -0.00013              0.03491         *
 * H               9     -0.06693             -0.07590              0.02995         *
 * H              10     -0.03743              0.01296              0.00182         *
 * H              11     -0.73989             -0.02812              0.45435         *
 * H              12      0.08079              0.78076              0.59907         *
 * H              13      0.21335              0.65071              0.48610         *
 * H              14      0.30362              0.18442             -0.01618         *
 * H              15      0.02469             -0.20229              0.04261         *
 * H              16     -0.02595             -0.00613             -0.09731         *
 * H              17     -0.00432              0.00813             -0.09652         *
 * H              18     -0.00416             -0.00865             -0.04763         *
 * H              19     -0.02355             -0.01170             -0.04767         *
 * H              20     -0.00310              0.00187             -0.02957         *
 * C               1     -0.00335              0.02394              0.06812         *
 * C               2     -0.04361              0.04246              0.12336         *
 * C               3      0.00743              0.00436             -0.25628         *
 * C               4      0.06153              0.01270             -0.05247         *
 * C               5     -0.06419              0.12290              0.08886         *
 * C               6      0.06910             -0.06410              0.05850         *
 * C               7     -0.05991              0.01824              0.01377         *
 * N               1      0.24326             -0.12756              0.09158         *
 * O               1      0.03865             -0.38180             -0.35446         *
 * O               2      0.10169             -0.40864             -0.25881         *
 * O               3      0.30972              0.32169             -0.33128         *
 * Si              1      0.14660             -0.96616             -0.39372         *
 *                                                                                  *
 ************************************************************************************
  
 +------------+-------------+-------------+-----------------+ <-- min LBFGS
 |    Step    |   lambda    |   F.delta'  |    enthalpy     | <-- min LBFGS
 +------------+-------------+-------------+-----------------+ <-- min LBFGS
 |  previous  |    0.000000 |    1.820408 |    -3191.190865 | <-- min LBFGS
 | trial step |    1.000000 |   -4.503259 |    -3189.968589 | <-- min LBFGS
 |  line step |    0.287872 |   -0.344792 |    -3191.347519 | <-- min LBFGS
 +------------+-------------+-------------+-----------------+ <-- min LBFGS
  
 LBFGS: finished iteration     1 with enthalpy= -3.19134752E+003 eV
  
 +-----------+-----------------+-----------------+------------+-----+ <-- LBFGS
 | Parameter |      value      |    tolerance    |    units   | OK? | <-- LBFGS
 +-----------+-----------------+-----------------+------------+-----+ <-- LBFGS
 |  dE/ion   |   4.895441E-003 |   2.000000E-005 |         eV | No  | <-- LBFGS
 |  |F|max   |   1.053552E+000 |   5.000000E-002 |       eV/A | No  | <-- LBFGS
 |  |dR|max  |   6.875516E-002 |   2.000000E-003 |          A | No  | <-- LBFGS
 +-----------+-----------------+-----------------+------------+-----+ <-- LBFGS
  

================================================================================
 Starting LBFGS iteration          2 ...
================================================================================
  
 +------------+-------------+-------------+-----------------+ <-- min LBFGS
 |    Step    |   lambda    |   F.delta'  |    enthalpy     | <-- min LBFGS
 +------------+-------------+-------------+-----------------+ <-- min LBFGS
 |  previous  |    0.000000 |    0.785143 |    -3191.347519 | <-- min LBFGS
 +------------+-------------+-------------+-----------------+ <-- min LBFGS
  

--------------------------------------------------------------------------------
 LBFGS: starting iteration         2 with trial guess (lambda=  1.000000)
--------------------------------------------------------------------------------
 
                           -------------------------------
                                     Cell Contents
                           -------------------------------
 
            xxxxxxxxxxxxxxxxxxxxxxxxxxxxxxxxxxxxxxxxxxxxxxxxxxxxxxxxxxxxxxxxx
            x  Element         Atom        Fractional coordinates of atoms  x
            x                 Number           u          v          w      x
            x---------------------------------------------------------------x
            x  H                 1         0.511621   0.484651   0.535696   x
            x  H                 2         0.585435   0.556120   0.536435   x
            x  H                 3         0.421002   0.523394   0.581187   x
            x  H                 4         0.495738   0.595011   0.581800   x
            x  H                 5         0.448576   0.513236   0.486274   x
            x  H                 6         0.381580   0.586888   0.481652   x
            x  H                 7         0.607171   0.571567   0.485190   x
            x  H                 8         0.547009   0.648592   0.489108   x
            x  H                 9         0.595859   0.633444   0.437668   x
            x  H                10         0.466578   0.635621   0.439686   x
            x  H                11         0.684455   0.489679   0.420194   x
            x  H                12         0.522278   0.513604   0.375176   x
            x  H                13         0.415526   0.450760   0.426006   x
            x  H                14         0.369919   0.552230   0.530596   x
            x  H                15         0.438760   0.619750   0.531192   x
            x  H                16         0.571638   0.453835   0.588610   x
            x  H                17         0.646360   0.524815   0.589064   x
            x  H                18         0.607504   0.487595   0.640473   x
            x  H                19         0.478626   0.494695   0.633733   x
            x  H                20         0.554929   0.565758   0.634296   x
            x  C                 1         0.514287   0.535673   0.543050   x
            x  C                 2         0.495181   0.542611   0.575856   x
            x  C                 3         0.448577   0.565368   0.491068   x
            x  C                 4         0.540046   0.598987   0.479379   x
            x  C                 5         0.531323   0.605686   0.445391   x
            x  C                 6         0.572230   0.506082   0.594468   x
            x  C                 7         0.551722   0.514189   0.627625   x
            x  N                 1         0.441062   0.569857   0.525010   x
            x  O                 1         0.525238   0.549040   0.388455   x
            x  O                 2         0.433001   0.487875   0.437571   x
            x  O                 3         0.629193   0.484414   0.432850   x
            x  Si                1         0.531299   0.526870   0.423801   x
            xxxxxxxxxxxxxxxxxxxxxxxxxxxxxxxxxxxxxxxxxxxxxxxxxxxxxxxxxxxxxxxxx
 
 
------------------------------------------------------------------------ <-- SCF
SCF loop      Energy                           Energy gain       Timer   <-- SCF
                                               per atom          (sec)   <-- SCF
------------------------------------------------------------------------ <-- SCF
Initial  -3.21377515E+003                                        131.68  <-- SCF
      1  -3.18988144E+003                   -7.46678529E-001     132.51  <-- SCF
      2  -3.19046498E+003                    1.82356648E-002     133.62  <-- SCF
      3  -3.19028185E+003                   -5.72289204E-003     134.62  <-- SCF
      4  -3.19041150E+003                    4.05166459E-003     135.64  <-- SCF
      5  -3.19041396E+003                    7.67673877E-005     136.72  <-- SCF
      6  -3.19041440E+003                    1.38687066E-005     137.67  <-- SCF
      7  -3.19041420E+003                   -6.40865486E-006     138.56  <-- SCF
      8  -3.19041380E+003                   -1.23373114E-005     139.43  <-- SCF
      9  -3.19041348E+003                   -1.02319968E-005     140.29  <-- SCF
     10  -3.19041355E+003                    2.38646801E-006     141.05  <-- SCF
     11  -3.19041384E+003                    8.95606730E-006     141.84  <-- SCF
     12  -3.19041408E+003                    7.43882964E-006     142.60  <-- SCF
     13  -3.19041450E+003                    1.30809449E-005     143.37  <-- SCF
     14  -3.19041482E+003                    1.01228043E-005     144.13  <-- SCF
     15  -3.19041520E+003                    1.18456456E-005     144.90  <-- SCF
     16  -3.19041541E+003                    6.57114249E-006     145.67  <-- SCF
     17  -3.19041579E+003                    1.18104540E-005     146.44  <-- SCF
     18  -3.19041593E+003                    4.32287290E-006     147.21  <-- SCF
     19  -3.19041608E+003                    4.82272250E-006     147.99  <-- SCF
     20  -3.19041618E+003                    3.19004944E-006     148.76  <-- SCF
     21  -3.19041621E+003                    9.53282731E-007     149.54  <-- SCF
     22  -3.19041627E+003                    1.79330073E-006     150.32  <-- SCF
     23  -3.19041630E+003                    8.10151601E-007     151.16  <-- SCF
[...]
 * H              17      0.00268              0.00169             -0.00101         *
 * H              18      0.00651              0.00149              0.00064         *
 * H              19      0.00189             -0.00590              0.00170         *
 * H              20     -0.00244              0.00196              0.00038         *
 * C               1     -0.00011              0.00288             -0.00463         *
 * C               2     -0.00598             -0.00228              0.01226         *
 * C               3     -0.00205              0.01324             -0.00439         *
 * C               4      0.00223             -0.01554             -0.00067         *
 * C               5      0.00490              0.00178              0.00098         *
 * C               6     -0.00613              0.00745              0.00554         *
 * C               7     -0.00159              0.00186             -0.00354         *
 * N               1      0.00172              0.00086             -0.00269         *
 * O               1      0.00042              0.00098             -0.00225         *
 * O               2     -0.00243             -0.00517             -0.00570         *
 * O               3     -0.00287             -0.00342              0.00061         *
 * Si              1      0.00173             -0.00742              0.00009         *
 *                                                                                  *
 ************************************************************************************
 
 Pseudo atomic calculation performed for H 1s1
 
 Converged in 13 iterations to a total energy of -12.4790 eV
 
 Pseudo atomic calculation performed for C 2s2 2p2
 
 Converged in 17 iterations to a total energy of -148.5208 eV
 
 Pseudo atomic calculation performed for N 2s2 2p3
 
 Converged in 21 iterations to a total energy of -268.1820 eV
 
 Pseudo atomic calculation performed for O 2s2 2p4
 
 Converged in 23 iterations to a total energy of -432.6536 eV
 
 Pseudo atomic calculation performed for Si 3s2 3p2
 
 Converged in 11 iterations to a total energy of -165.0683 eV
Charge spilling parameter for spin component 1 = 1.55%
 
            Orbital Populations       
     Ion    Atom   Orbital             Charge
  -------------------------------------------
      H     1      S                    0.683
      H     2      S                    0.691
      H     3      S                    0.737
      H     4      S                    0.733
      H     5      S                    0.682
      H     6      S                    0.688
      H     7      S                    0.728
      H     8      S                    0.737
      H     9      S                    0.698
      H    10      S                    0.715
      H    11      S                    0.462
      H    12      S                    0.459
      H    13      S                    0.469
      H    14      S                    0.505
      H    15      S                    0.514
      H    16      S                    0.726
      H    17      S                    0.728
      H    18      S                    0.699
      H    19      S                    0.727
      H    20      S                    0.727
      C     1      S                    1.299
      C     1      Px                   0.998
      C     1      Py                   1.132
      C     1      Pz                   0.972
      C     2      S                    1.297
      C     2      Px                   1.133
      C     2      Py                   1.166
      C     2      Pz                   0.924
      C     3      S                    1.302
      C     3      Px                   1.142
      C     3      Py                   1.240
      C     3      Pz                   0.722
      C     4      S                    1.294
      C     4      Px                   1.043
      C     4      Py                   1.152
      C     4      Pz                   1.028
      C     5      S                    1.408
      C     5      Px                   1.247
      C     5      Py                   1.302
      C     5      Pz                   1.010
      C     6      S                    1.305
      C     6      Px                   1.082
      C     6      Py                   1.141
      C     6      Pz                   0.984
      C     7      S                    1.400
      C     7      Px                   1.207
      C     7      Py                   1.206
      C     7      Pz                   0.982
      N     1      S                    1.588
      N     1      Px                   1.369
      N     1      Py                   1.397
      N     1      Pz                   1.281
      O     1      S                    1.853
      O     1      Px                   1.895
      O     1      Py                   1.782
      O     1      Pz                   1.558
      O     2      S                    1.858
      O     2      Px                   1.823
      O     2      Py                   1.557
      O     2      Pz                   1.866
      O     3      S                    1.857
      O     3      Px                   1.550
      O     3      Py                   1.866
      O     3      Pz                   1.828
     Si     1      S                    0.726
     Si     1      Px                   0.329
     Si     1      Py                   0.413
     Si     1      Pz                   0.375
  -------------------------------------------
                           Total:      74.000
  -------------------------------------------
 
     Atomic Populations (Mulliken)
     -----------------------------
Species          Ion     s       p       d       f      Total   Charge (e)
==========================================================================
  H               1     0.683   0.000   0.000   0.000   0.683     0.317
  H               2     0.691   0.000   0.000   0.000   0.691     0.309
  H               3     0.737   0.000   0.000   0.000   0.737     0.263
  H               4     0.733   0.000   0.000   0.000   0.733     0.267
  H               5     0.682   0.000   0.000   0.000   0.682     0.318
  H               6     0.688   0.000   0.000   0.000   0.688     0.312
  H               7     0.728   0.000   0.000   0.000   0.728     0.272
  H               8     0.737   0.000   0.000   0.000   0.737     0.263
  H               9     0.698   0.000   0.000   0.000   0.698     0.302
  H              10     0.715   0.000   0.000   0.000   0.715     0.285
  H              11     0.462   0.000   0.000   0.000   0.462     0.538
  H              12     0.459   0.000   0.000   0.000   0.459     0.541
  H              13     0.469   0.000   0.000   0.000   0.469     0.531
  H              14     0.505   0.000   0.000   0.000   0.505     0.495
  H              15     0.514   0.000   0.000   0.000   0.514     0.486
  H              16     0.726   0.000   0.000   0.000   0.726     0.274
  H              17     0.728   0.000   0.000   0.000   0.728     0.272
  H              18     0.699   0.000   0.000   0.000   0.699     0.301
  H              19     0.727   0.000   0.000   0.000   0.727     0.273
  H              20     0.727   0.000   0.000   0.000   0.727     0.273
  C               1     1.299   3.102   0.000   0.000   4.401    -0.401
  C               2     1.297   3.223   0.000   0.000   4.519    -0.519
  C               3     1.302   3.105   0.000   0.000   4.407    -0.407
  C               4     1.294   3.224   0.000   0.000   4.518    -0.518
  C               5     1.408   3.559   0.000   0.000   4.967    -0.967
  C               6     1.305   3.207   0.000   0.000   4.512    -0.512
  C               7     1.400   3.395   0.000   0.000   4.795    -0.795
  N               1     1.588   4.047   0.000   0.000   5.636    -0.636
  O               1     1.853   5.235   0.000   0.000   7.089    -1.089
  O               2     1.858   5.245   0.000   0.000   7.103    -1.103
  O               3     1.857   5.244   0.000   0.000   7.101    -1.101
  Si              1     0.726   1.117   0.000   0.000   1.842     2.158
==========================================================================
 
                 Bond                   Population      Length (A)
======================================================================
              H 12 -- O 1                    0.53        0.96856
              H 11 -- O 3                    0.53        0.96909
              H 13 -- O 2                    0.53        0.97067
              H 15 -- N 1                    0.67        1.02982
              H 14 -- N 1                    0.68        1.02989
              H 2  -- C 1                    0.86        1.09618
              H 5  -- C 3                    0.85        1.09627
              H 18 -- C 7                    0.81        1.09723
              H 1  -- C 1                    0.85        1.09805
              H 6  -- C 3                    0.85        1.09852
              H 20 -- C 7                    0.81        1.09955
              H 19 -- C 7                    0.81        1.09969
              H 9  -- C 5                    0.82        1.10073
              H 7  -- C 4                    0.86        1.10076
              H 10 -- C 5                    0.81        1.10130
              H 17 -- C 6                    0.84        1.10132
              H 16 -- C 6                    0.84        1.10168
              H 3  -- C 2                    0.85        1.10441
              H 4  -- C 2                    0.85        1.10463
              H 8  -- C 4                    0.85        1.10547
               C 1 -- N 1                    0.51        1.50974
               C 3 -- N 1                    0.50        1.51761
               C 1 -- C 2                    0.71        1.51970
               C 3 -- C 4                    0.70        1.52295
               C 6 -- C 7                    0.65        1.52805
               C 2 -- C 6                    0.68        1.53188
               C 4 -- C 5                    0.65        1.53986
               O 1 -- Si 1                   0.52        1.63880
              H 14 -- H 15                  -0.11        1.64367
               O 3 -- Si 1                   0.48        1.65617
               O 2 -- Si 1                   0.48        1.65682
              H 9  -- H 10                  -0.10        1.75178
              H 16 -- H 17                  -0.12        1.76988
              H 18 -- H 19                  -0.10        1.77239
              H 3  -- H 4                   -0.12        1.77573
              H 5  -- H 6                   -0.11        1.77580
              H 18 -- H 20                  -0.10        1.77614
              H 19 -- H 20                  -0.10        1.78015
              H 7  -- H 8                   -0.12        1.78060
              H 1  -- H 2                   -0.11        1.78298
               C 5 -- Si 1                   0.60        1.87627
              H 14 -- C 1                   -0.13        2.07186
              H 15 -- C 1                   -0.13        2.07600
              H 15 -- C 3                   -0.13        2.08689
              H 14 -- C 3                   -0.13        2.09437
              H 1  -- N 1                   -0.11        2.10183
              H 6  -- N 1                   -0.12        2.10332
              H 2  -- N 1                   -0.11        2.10530
              H 5  -- N 1                   -0.11        2.12353
              H 8  -- C 3                   -0.14        2.15170
              H 4  -- C 1                   -0.14        2.15637
              H 3  -- C 1                   -0.14        2.15795
              H 3  -- C 6                   -0.12        2.15968
              H 17 -- C 2                   -0.14        2.15988
              H 7  -- C 3                   -0.13        2.16112
              H 16 -- C 2                   -0.13        2.16136
              H 9  -- C 4                   -0.11        2.16197
              H 4  -- C 6                   -0.12        2.16504
              H 17 -- C 7                   -0.13        2.16560
              H 16 -- C 7                   -0.13        2.16690
              H 7  -- C 5                   -0.13        2.17214
              H 6  -- C 4                   -0.12        2.17302
              H 8  -- C 5                   -0.13        2.17337
              H 18 -- C 6                   -0.12        2.17639
              H 20 -- C 6                   -0.12        2.17921
              H 19 -- C 6                   -0.12        2.18166
              H 10 -- C 4                   -0.12        2.18202
              H 2  -- C 2                   -0.12        2.18462
              H 5  -- C 4                   -0.11        2.18795
              H 1  -- C 2                   -0.12        2.19098
              H 13 -- Si 1                  -0.14        2.27497
              H 11 -- Si 1                  -0.12        2.28068
              H 2  -- H 7                   -0.04        2.29524
              H 12 -- Si 1                  -0.14        2.30503
              H 6  -- H 14                  -0.04        2.31690
              H 5  -- O 2                    0.00        2.34679
              H 2  -- H 15                  -0.04        2.38750
              H 3  -- H 14                  -0.01        2.39193
              H 8  -- H 15                  -0.00        2.39280
              H 6  -- H 15                  -0.03        2.41286
              H 1  -- H 14                  -0.03        2.41924
              H 9  -- Si 1                  -0.13        2.42646
              H 8  -- H 9                   -0.05        2.43871
              H 5  -- H 14                  -0.02        2.44749
              H 4  -- H 15                  -0.01        2.46125
              H 10 -- Si 1                  -0.11        2.47035
               C 2 -- N 1                   -0.14        2.47959
              H 5  -- H 7                   -0.04        2.48432
              H 6  -- H 10                  -0.01        2.50116
              H 16 -- H 18                  -0.03        2.50410
              H 4  -- H 17                  -0.03        2.50534
              H 1  -- H 5                   -0.01        2.50666
              H 17 -- H 18                  -0.03        2.50959
              H 3  -- H 16                  -0.03        2.50984
              H 2  -- H 4                   -0.03        2.51575
               C 4 -- N 1                   -0.13        2.51809
              H 17 -- H 20                  -0.03        2.52173
              H 7  -- H 9                   -0.02        2.52908
               C 3 -- C 5                   -0.14        2.53096
              H 16 -- H 19                  -0.03        2.53101
               C 2 -- C 7                   -0.16        2.53246
              H 8  -- H 10                  -0.03        2.53436
               C 1 -- C 6                   -0.14        2.53451
              H 1  -- H 3                   -0.03        2.53672
              H 3  -- H 19                  -0.01        2.55629
              H 6  -- H 8                   -0.03        2.55712
              H 4  -- H 20                  -0.01        2.57549
               C 1 -- C 3                   -0.12        2.57881
              H 1  -- H 16                  -0.01        2.59717
              H 14 -- C 2                   -0.04        2.61660
              H 2  -- H 17                  -0.01        2.62166
               O 2 -- O 3                   -0.08        2.63926
              H 15 -- C 2                   -0.03        2.66636
              H 8  -- N 1                   -0.04        2.66944
              H 15 -- C 4                   -0.04        2.68159
              H 3  -- N 1                   -0.03        2.69970
              H 4  -- N 1                   -0.03        2.71498
              H 6  -- C 5                   -0.04        2.72676
              H 3  -- C 7                   -0.04        2.74806
              H 1  -- C 3                   -0.03        2.75363
               O 1 -- O 3                   -0.07        2.75404
              H 16 -- C 1                   -0.04        2.75638
              H 10 -- C 3                   -0.04        2.76345
              H 4  -- C 7                   -0.04        2.76379
              H 17 -- C 1                   -0.04        2.76615
              H 5  -- C 1                   -0.04        2.78448
               O 1 -- O 2                   -0.07        2.78647
               C 5 -- O 1                   -0.10        2.79515
              H 19 -- C 2                   -0.04        2.79722
              H 20 -- C 2                   -0.04        2.79915
              H 2  -- C 3                   -0.02        2.80056
              H 2  -- C 4                   -0.02        2.80532
               C 5 -- O 2                   -0.10        2.81522
              H 1  -- C 6                   -0.03        2.82608
              H 7  -- N 1                   -0.01        2.83618
              H 2  -- C 6                   -0.03        2.83749
              H 13 -- O 3                   -0.01        2.85895
              H 5  -- C 5                   -0.02        2.88166
              H 11 -- O 1                   -0.01        2.89050
               C 4 -- Si 1                  -0.14        2.90458
              H 7  -- C 1                   -0.02        2.91442
               C 5 -- O 3                   -0.09        2.92349
              H 2  -- H 8                   -0.00        2.93372
              H 9  -- O 1                   -0.01        2.94166
              H 4  -- H 14                  -0.00        2.94278
              H 2  -- H 14                   0.03        2.94927
              H 1  -- H 15                   0.03        2.95079
              H 5  -- H 15                   0.03        2.96963
              H 10 -- O 1                   -0.01        2.97568
              H 3  -- H 15                  -0.00        2.99163
              H 5  -- H 13                  -0.00        3.00000
======================================================================
 
 
     Hirshfeld Analysis
     ------------------
Species   Ion     Hirshfeld Charge (e)
======================================
  H        1                 0.07
  H        2                 0.07
  H        3                 0.05
  H        4                 0.05
  H        5                 0.05
  H        6                 0.07
  H        7                 0.04
  H        8                 0.04
  H        9                 0.06
  H       10                 0.05
  H       11                 0.17
  H       12                 0.18
  H       13                 0.17
  H       14                 0.18
  H       15                 0.17
  H       16                 0.05
  H       17                 0.04
  H       18                 0.06
  H       19                 0.05
  H       20                 0.04
  C        1                 0.01
  C        2                -0.06
  C        3                 0.01
  C        4                -0.06
  C        5                -0.14
  C        6                -0.05
  C        7                -0.10
  N        1                 0.03
  O        1                -0.27
  O        2                -0.28
  O        3                -0.29
  Si       1                 0.47
======================================
 

Writing analysis data to Conf_0009.castep_bin

Writing model to Conf_0009.check
 
 A BibTeX formatted list of references used in this run has been written to 
 Conf_0009.bib
 
Initialisation time =     24.57 s
Calculation time    =    679.20 s
Finalisation time   =      1.05 s
Total time          =    704.82 s
Peak Memory Use     = 7915112 kB
 
Overall parallel efficiency rating: Satisfactory (66%)
 
Data was distributed by:-
G-vector (48-way); efficiency rating: Satisfactory (66%)
High Water Mark     = 1765304 kB
