 Job started on host drago31060180.mgmt.cc.csic.es
 at Sun Mar 31 01:11:40 2024

 +-------------------------------------------------+
 |                                                 |
 |      CCC   AA    SSS  TTTTT  EEEEE  PPPP        |
 |     C     A  A  S       T    E      P   P       |
 |     C     AAAA   SS     T    EEE    PPPP        |
 |     C     A  A     S    T    E      P           |
 |      CCC  A  A  SSS     T    EEEEE  P           |
 |                                                 |
 +-------------------------------------------------+
 |                                                 |
 | Materials Studio CASTEP version 2024            |
 | Ab Initio Total Energy Program                  |
 |                                                 |
 | Authors:                                        |
 | M. Segall, M. Probert, C. Pickard, P. Hasnip,   |
 | S. Clark, K. Refson, J. R. Yates,               |
 | A. Bartok-Partay, M. Payne                      |
 |                                                 |
 | Contributors:                                   |
 | P. Lindan, P. Haynes, J. White, V. Milman,      |
 | N. Govind, M. Gibson, P. Tulip, V. Cocula,      |
 | B. Montanari, D. Quigley, M. Glover,            |
 | L. Bernasconi, A. Perlov, M. Plummer,           |
 | E. McNellis, J. Meyer, J. Gale, D. Jochym       |
 | J. Aarons, B. Walker, R. Gillen, D. Jones       |
 | T. Green, I. J. Bush, C. J. Armstrong,          |
 | E. J. Higgins, E. L. Brown, M. S. McFly,        |
 | J. Wilkins, B-C. Shih, P. J. P. Byrne,          |
 | R. J. Maurer, J. C. Womack, J. Dziedzic,        |
 | L. LeBlanc, T. K. Stenczel, J. Kermode,         |
 | S. Sturniolo, B. Shi, B. Durham, M. Evans,      |
 | M. J. Smith, A. Tamerus, Z. Hawkhead,           |
 | V. Ravindran, T. Hollins, S. A. Joyce,          |
 | R. T. Strong, A. M. Reilly                      |
 |                                                 |
 | Copyright (c) 2000 - 2023                       |
 |                                                 |
 | Please cite                                     |
 |                                                 |
 |     "First principles methods using CASTEP"     |
 |                                                 |
 |         Zeitschrift fuer Kristallographie       |
 |           220(5-6) pp. 567-570 (2005)           |
 |                                                 |
 | S. J. Clark, M. D. Segall, C. J. Pickard,       |
 | P. J. Hasnip, M. J. Probert, K. Refson,         |
 | M. C. Payne                                     |
 |                                                 |
 |       in all publications arising from          |
 |              your use of CASTEP                 |
 |                                                 |
 +-------------------------------------------------+
 |                                                 |
 |              http://www.castep.org              |
 |                                                 |
 +-------------------------------------------------+
 
 
 This version was compiled for x86_64-rhel7-intel19.0 on Oct 24 2023
 Code version:    a9f326b
 Intel(R) Math Kernel Library Version 2019.0.4 
 Fundamental constants values: CODATA 2018
 
License checkout of MS_castep successful
 
 
 Atomic calculation performed for H: 1s1
 
 Converged in 41 iterations to an ae energy of -12.488 eV
 
 Identity difference: 2.63E-05
 
   ============================================================                
   | Pseudopotential Report - Date of generation 31-03-2024   |                
   ------------------------------------------------------------                
   | Element: H Ionic charge:  1.00 Level of theory: PBE      |                
   | Atomic Solver: Koelling-Harmon                           |                
   |                                                          |                
   |               Reference Electronic Structure             |                
   |         Orbital         Occupation         Energy        |                
   |            1s              1.000           -0.239        |                
   |                                                          |                
   |                 Pseudopotential Definition               |                
   |        Beta     l      e      Rc     scheme   norm       |                
   |          1      0   -0.239   0.599     qc      0         |                
   |          2      0    0.250   0.599     qc      0         |                
   |         loc     1    0.000   0.599     pn      0         |                
   |                                                          |                
   | Augmentation charge Rinner = 0.421                       |                
   | No partial core correction                               |                
   ------------------------------------------------------------                
   | "1|0.6|9|10|15|10UU(qc=8)[]"                             |                
   ------------------------------------------------------------                
   |      Author: Chris J. Pickard, Cambridge University      |                
   ============================================================                
 
 Doing a self consistent calculation for the test configuration
 
 Atomic calculation performed for H: 1s1
 
 Converged in 41 iterations to an ae energy of -12.488 eV
 
 ---------------------------------------
 AE eigenvalue nl 10 =       -0.23860176
 ---------------------------------------
 PS eigenvalue nl 10 =       -0.23857601
 ---------------------------------------
 Maximum eigenvalue error:   2.57E-05
 
 Derived cutoff energies: C=   1 M=   6 F=  10 E=  20
 
 Checking for ghost states up to   1.51185 Ha
 
 No Ghost States Identified
 
 ***************************************
 
 Atomic calculation performed for C: 1s2 2s2 2p2
 
 Converged in 54 iterations to an ae energy of -1027.632 eV
 
 Identity difference: 2.37E-04
 
   ============================================================                
   | Pseudopotential Report - Date of generation 31-03-2024   |                
   ------------------------------------------------------------                
   | Element: C Ionic charge:  4.00 Level of theory: PBE      |                
   | Atomic Solver: Koelling-Harmon                           |                
   |                                                          |                
   |               Reference Electronic Structure             |                
   |         Orbital         Occupation         Energy        |                
   |            2s              2.000           -0.505        |                
   |            2p              2.000           -0.194        |                
   |                                                          |                
   |                 Pseudopotential Definition               |                
   |        Beta     l      e      Rc     scheme   norm       |                
   |          1      0   -0.505   1.395     qc      0         |                
   |          2      0    0.250   1.395     qc      0         |                
   |          3      1   -0.194   1.395     qc      0         |                
   |          4      1    0.250   1.395     qc      0         |                
   |         loc     2    0.000   1.395     pn      0         |                
   |                                                          |                
   | Augmentation charge Rinner = 0.983                       |                
   | Partial core correction Rc = 0.983                       |                
   ------------------------------------------------------------                
   | "2|1.4|11|12|14.7|20UU:21UU(qc=7)[]"                     |                
   ------------------------------------------------------------                
   |      Author: Chris J. Pickard, Cambridge University      |                
   ============================================================                
 
 Doing a self consistent calculation for the test configuration
 
 Atomic calculation performed for C: 1s2 2s2 2p2
 
 Converged in 54 iterations to an ae energy of -1027.632 eV
 
 ---------------------------------------
 AE eigenvalue nl 10 =      -10.04653081
 AE eigenvalue nl 20 =       -0.50533429
 AE eigenvalue nl 21 =       -0.19423807
 ---------------------------------------
 PS eigenvalue nl 20 =       -0.50531853
 PS eigenvalue nl 21 =       -0.19422214
 ---------------------------------------
 Maximum eigenvalue error:   1.59E-05
 
 Derived cutoff energies: C=   6 M=  10 F=  12 E=  16
 
 Checking for ghost states up to   1.47183 Ha
 
 No Ghost States Identified
 
 ***************************************
 
 Atomic calculation performed for N: 1s2 2s2 2p3
 
 Converged in 55 iterations to an ae energy of -1481.742 eV
 
 Identity difference: 2.27E-04
 
   ============================================================                
   | Pseudopotential Report - Date of generation 31-03-2024   |                
   ------------------------------------------------------------                
   | Element: N Ionic charge:  5.00 Level of theory: PBE      |                
   | Atomic Solver: Koelling-Harmon                           |                
   |                                                          |                
   |               Reference Electronic Structure             |                
   |         Orbital         Occupation         Energy        |                
   |            2s              2.000           -0.683        |                
   |            2p              3.000           -0.261        |                
   |                                                          |                
   |                 Pseudopotential Definition               |                
   |        Beta     l      e      Rc     scheme   norm       |                
   |          1      0   -0.683   1.100     qc      0         |                
   |          2      0    0.250   1.100     qc      0         |                
   |          3      1   -0.261   1.100     qc      0         |                
   |          4      1    0.250   1.100     qc      0         |                
   |         loc     2    0.000   1.100     pn      0         |                
   |                                                          |                
   | Augmentation charge Rinner = 0.769                       |                
   | Partial core correction Rc = 0.769                       |                
   ------------------------------------------------------------                
   | "2|1.1|12|16|19|20UU:21UU(qc=7)[]"                       |                
   ------------------------------------------------------------                
   |      Author: Chris J. Pickard, Cambridge University      |                
   ============================================================                
 
 Doing a self consistent calculation for the test configuration
 
 Atomic calculation performed for N: 1s2 2s2 2p3
 
 Converged in 55 iterations to an ae energy of -1481.742 eV
 
 ---------------------------------------
 AE eigenvalue nl 10 =      -14.13820921
 AE eigenvalue nl 20 =       -0.68290611
 AE eigenvalue nl 21 =       -0.26054797
 ---------------------------------------
 PS eigenvalue nl 20 =       -0.68291221
 PS eigenvalue nl 21 =       -0.26051708
 ---------------------------------------
 Maximum eigenvalue error:   3.09E-05
 
 Derived cutoff energies: C=  10 M=  15 F=  18 E=  23
 
 Checking for ghost states up to   1.48495 Ha
 
 No Ghost States Identified
 
 ***************************************
 
 Atomic calculation performed for O: 1s2 2s2 2p4
 
 Converged in 61 iterations to an ae energy of -2040.902 eV
 
 Identity difference: 4.10E-04
 
   ============================================================                
   | Pseudopotential Report - Date of generation 31-03-2024   |                
   ------------------------------------------------------------                
   | Element: O Ionic charge:  6.00 Level of theory: PBE      |                
   | Atomic Solver: Koelling-Harmon                           |                
   |                                                          |                
   |               Reference Electronic Structure             |                
   |         Orbital         Occupation         Energy        |                
   |            2s              2.000           -0.881        |                
   |            2p              4.000           -0.332        |                
   |                                                          |                
   |                 Pseudopotential Definition               |                
   |        Beta     l      e      Rc     scheme   norm       |                
   |          1      0   -0.881   1.100     qc      0         |                
   |          2      0    0.250   1.100     qc      0         |                
   |          3      1   -0.332   1.100     qc      0         |                
   |          4      1    0.250   1.100     qc      0         |                
   |         loc     2    0.000   1.100     pn      0         |                
   |                                                          |                
   | Augmentation charge Rinner = 0.769                       |                
   | Partial core correction Rc = 0.769                       |                
   ------------------------------------------------------------                
   | "2|1.1|14|18|21|20UU:21UU(qc=7)[]"                       |                
   ------------------------------------------------------------                
   |      Author: Chris J. Pickard, Cambridge University      |                
   ============================================================                
 
 Doing a self consistent calculation for the test configuration
 
 Atomic calculation performed for O: 1s2 2s2 2p4
 
 Converged in 61 iterations to an ae energy of -2040.902 eV
 
 ---------------------------------------
 AE eigenvalue nl 10 =      -18.91475256
 AE eigenvalue nl 20 =       -0.88057101
 AE eigenvalue nl 21 =       -0.33186952
 ---------------------------------------
 PS eigenvalue nl 20 =       -0.88059206
 PS eigenvalue nl 21 =       -0.33182157
 ---------------------------------------
 Maximum eigenvalue error:   4.80E-05
 
 Derived cutoff energies: C=  14 M=  17 F=  20 E=  22
 
 Checking for ghost states up to   1.49452 Ha
 
 No Ghost States Identified
 
 ***************************************
 
 Atomic calculation performed for Si: 1s2 2s2 2p6 3s2 3p2
 
 Converged in 54 iterations to an ae energy of -7886.857 eV
 
 Identity difference: 1.35E-04
 
   ============================================================                
   | Pseudopotential Report - Date of generation 31-03-2024   |                
   ------------------------------------------------------------                
   | Element: Si Ionic charge:  4.00 Level of theory: PBE     |                
   | Atomic Solver: Koelling-Harmon                           |                
   |                                                          |                
   |               Reference Electronic Structure             |                
   |         Orbital         Occupation         Energy        |                
   |            3s              2.000           -0.397        |                
   |            3p              2.000           -0.150        |                
   |                                                          |                
   |                 Pseudopotential Definition               |                
   |        Beta     l      e      Rc     scheme   norm       |                
   |          1      0   -0.397   1.797     qc      0         |                
   |          2      0    0.250   1.797     qc      0         |                
   |          3      1   -0.150   1.797     qc      0         |                
   |          4      1    0.250   1.797     qc      0         |                
   |          5      2    0.000   1.797     qc      0         |                
   |          6      2    0.250   1.797     qc      0         |                
   |         loc     3    0.000   1.797     pn      0         |                
   |                                                          |                
   | Augmentation charge Rinner = 1.255                       |                
   | Partial core correction Rc = 1.255                       |                
   ------------------------------------------------------------                
   | "3|1.8|3.6|5|7|30UU:31UU:32UU[]"                         |                
   ------------------------------------------------------------                
   |      Author: Chris J. Pickard, Cambridge University      |                
   ============================================================                
 
 Doing a self consistent calculation for the test configuration
 
 Atomic calculation performed for Si: 1s2 2s2 2p6 3s2 3p2
 
 Converged in 54 iterations to an ae energy of -7886.857 eV
 
 ---------------------------------------
 AE eigenvalue nl 10 =      -65.63192903
 AE eigenvalue nl 20 =       -5.12654326
 AE eigenvalue nl 21 =       -3.51173659
 AE eigenvalue nl 30 =       -0.39736430
 AE eigenvalue nl 31 =       -0.14998156
 ---------------------------------------
 PS eigenvalue nl 30 =       -0.39734922
 PS eigenvalue nl 31 =       -0.14996719
 ---------------------------------------
 Maximum eigenvalue error:   1.51E-05
 
 Derived cutoff energies: C=   1 M=   3 F=   6 E=   6
 
 Checking for ghost states up to   1.41161 Ha
 
 No Ghost States Identified
 
 ***************************************
 
 Pseudo atomic calculation performed for H 1s1
 
 Converged in 13 iterations to a total energy of -12.4790 eV
 
 Pseudo atomic calculation performed for C 2s2 2p2
 
 Converged in 17 iterations to a total energy of -148.5208 eV
 
 Pseudo atomic calculation performed for N 2s2 2p3
 
 Converged in 21 iterations to a total energy of -268.1820 eV
 
 Pseudo atomic calculation performed for O 2s2 2p4
 
 Converged in 23 iterations to a total energy of -432.6536 eV
 
 Pseudo atomic calculation performed for Si 3s2 3p2
 
 Converged in 11 iterations to a total energy of -165.0683 eV
 Calculation parallelised over 48 processes.
 Data is distributed by G-vector(48-way)

 ************************************ Title ************************************
 CASTEP calculation from BIOVIA Materials Studio 2024

 ***************************** General Parameters ******************************
  
 output verbosity                               : normal  (1)
 write checkpoint data to                       : Conf_0017.check
 type of calculation                            : geometry optimization
 stress calculation                             : off
 density difference calculation                 : off
 electron localisation func (ELF) calculation   : off
 Hirshfeld analysis                             : on
 polarisation (Berry phase) analysis            : off
 molecular orbital projected DOS                : off
 deltaSCF calculation                           : off
 unlimited duration calculation
 timing information                             : on
 memory usage estimate                          : on
 write extra output files                       : on
 write final potential to formatted file        : off
 write final density to formatted file          : off
 write BibTeX reference list                    : on
 write OTFG pseudopotential files               : on
 write electrostatic potential file             : on
 write bands file                               : on
 checkpoint writing                             : both castep_bin and check files
  
 output         length unit                     : A
 output           mass unit                     : amu
 output           time unit                     : ps
 output         charge unit                     : e
 output           spin unit                     : hbar/2
 output         energy unit                     : eV
 output          force unit                     : eV/A
 output       velocity unit                     : A/ps
 output       pressure unit                     : GPa
 output     inv_length unit                     : 1/A
 output      frequency unit                     : cm-1
 output force constant unit                     : eV/A**2
 output         volume unit                     : A**3
 output   IR intensity unit                     : (D/A)**2/amu
 output         dipole unit                     : D
 output         efield unit                     : eV/A/e
 output        entropy unit                     : J/mol/K
 output    efield chi2 unit                     : pm/V
  
 wavefunctions paging                           : none
 random number generator seed                   :   11143256
 data distribution                              : optimal for this architecture
 optimization strategy                          : balance speed and memory

 *********************** Exchange-Correlation Parameters ***********************
  
 using functional                               : Perdew Burke Ernzerhof
 relativistic treatment                         : Koelling-Harmon
 DFT+D: Semi-empirical dispersion correction    : on
 SEDC with                                      : G06 correction scheme

 ************************* Pseudopotential Parameters **************************
  
 pseudopotential representation                 : reciprocal space
 <beta|phi> representation                      : reciprocal space
 spin-orbit coupling                            : off

 **************************** Basis Set Parameters *****************************
  
 plane wave basis set cut-off                   :   600.0000   eV
 size of standard grid                          :     1.5000
 size of   fine   gmax                          :    18.8237   1/A
 largest prime factor in FFT                    :          5
 finite basis set correction                    : none

 **************************** Electronic Parameters ****************************
  
 number of  electrons                           :  74.00    
 net charge of system                           : +1.000    
 treating system as non-spin-polarized
 number of bands                                :         37

 ********************* Electronic Minimization Parameters **********************
  
 Method: Treating system as non-metallic,
         and number of  SD  steps               :          1
         and number of  CG  steps               :          4
  
 total energy / atom convergence tol.           : 0.2000E-05   eV
 eigen-energy convergence tolerance             : 0.1000E-05   eV
 max force / atom convergence tol.              : ignored
 convergence tolerance window                   :          3   cycles
 max. number of SCF cycles                      :        100
 periodic dipole correction                     : NONE

 ************************** Density Mixing Parameters **************************
  
 density-mixing scheme                          : Pulay
 max. length of mixing history                  :         20
 charge density mixing amplitude                : 0.5000    
 cut-off energy for mixing                      :  600.0       eV
 charge density mixing g-vector                 :  1.500       1/A

 *********************** Population Analysis Parameters ************************
  
 Population analysis with cutoff                :  3.000       A
 Population analysis output                     : summary and pdos components

 ********************** Geometry Optimization Parameters ***********************
  
 optimization method                            : LBFGS
 max. no. of LBFGS updates                      : unbounded
 preconditioned LBFGS is activated
 preconditioner type                            : EXP
     stabilization constant                     :     0.1000
     parameter A                                :     3.0000
     nearest neighbor distance                  : automatic
     cut-off distance                           : automatic
     parameter mu                               : automatic
 variable cell method                           : fixed basis quality
 max. number of steps                           :        300
 estimated bulk modulus                         :  500.0       GPa
 estimated <frequency>                          :  1668.       cm-1
 geom line minimiser                            : on
 with line minimiser tolerance                  :     0.4000
 total energy convergence tolerance             : 0.2000E-04   eV/atom
        max ionic |force| tolerance             : 0.5000E-01   eV/A
 max ionic |displacement| tolerance             : 0.2000E-02   A
   max |stress component| tolerance             : 0.1000       GPa
 convergence tolerance window                   :          2   steps
 backup results every                           :          5   steps
 write geom trajectory file                     : on

 *******************************************************************************
  
 
                           -------------------------------
                                      Unit Cell
                           -------------------------------
        Real Lattice(A)                      Reciprocal Lattice(1/A)
    13.4840002    -0.0000006    -0.0000006        0.465973392   0.000000000   0.000000000
     0.0000000    20.4006996    -0.0000009        0.000000013   0.307988717   0.000000000
     0.0000000     0.0000000    45.0000000        0.000000006   0.000000006   0.139626340
 
                       Lattice parameters(A)       Cell Angles
                    a =     13.484000          alpha =   90.000003
                    b =     20.400700          beta  =   90.000003
                    c =     45.000000          gamma =   90.000003
 
                       Current cell volume =         12378.736702       A**3
                                   density =             0.015698   AMU/A**3
                                           =             0.026068     g/cm^3
 
                           -------------------------------
                                     Cell Contents
                           -------------------------------
                         Total number of ions in cell =   32
                      Total number of species in cell =    5
                        Max number of any one species =   20
 
            xxxxxxxxxxxxxxxxxxxxxxxxxxxxxxxxxxxxxxxxxxxxxxxxxxxxxxxxxxxx
            x  Element    Atom        Fractional coordinates of atoms  x
            x            Number           u          v          w      x
            x----------------------------------------------------------x
            x  H            1         0.501768   0.421025   0.556051   x 
            x  H            2         0.569833   0.494914   0.548433   x 
            x  H            3         0.405709   0.480116   0.596091   x 
            x  H            4         0.471952   0.553486   0.588432   x 
            x  H            5         0.520778   0.488528   0.498892   x 
            x  H            6         0.450129   0.415553   0.506162   x 
            x  H            7         0.365830   0.543919   0.479451   x 
            x  H            8         0.295718   0.472537   0.487239   x 
            x  H            9         0.333307   0.480123   0.433694   x 
            x  H           10         0.390102   0.409786   0.448851   x 
            x  H           11         0.565685   0.595341   0.426019   x 
            x  H           12         0.523554   0.440311   0.388006   x 
            x  H           13         0.669420   0.453197   0.440903   x 
            x  H           14         0.349857   0.479315   0.541277   x 
            x  H           15         0.413147   0.546876   0.534082   x 
            x  H           16         0.565366   0.424938   0.610731   x 
            x  H           17         0.631067   0.498227   0.603122   x 
            x  H           18         0.598192   0.487731   0.657327   x 
            x  H           19         0.468331   0.482657   0.650868   x 
            x  H           20         0.533342   0.556746   0.643047   x 
            x  C            1         0.499213   0.475036   0.556920   x 
            x  C            2         0.477648   0.499495   0.588336   x 
            x  C            3         0.446200   0.469312   0.503883   x 
            x  C            4         0.369943   0.489893   0.480486   x 
            x  C            5         0.392773   0.463869   0.448898   x 
            x  C            6         0.558503   0.478924   0.610468   x 
            x  C            7         0.538336   0.502841   0.642108   x 
            x  N            1         0.416356   0.497395   0.534926   x 
            x  O            1         0.527832   0.482093   0.397157   x 
            x  O            2         0.604824   0.450619   0.449252   x 
            x  O            3         0.533850   0.569054   0.440605   x 
            x  Si           1         0.516424   0.491754   0.432835   x 
            xxxxxxxxxxxxxxxxxxxxxxxxxxxxxxxxxxxxxxxxxxxxxxxxxxxxxxxxxxxx
 
 
                         No user defined ionic velocities
 
                           -------------------------------
                                   Details of Species
                           -------------------------------
 
                               Mass of species in AMU
                                    H    1.0080000
                                    C   12.0109997
                                    N   14.0070000
                                    O   15.9989996
                                    Si   28.0849991
 
                          Electric Quadrupole Moment (Barn)
                                    H    0.0028600 Isotope  2
                                    C    0.0332700 Isotope 11
                                    N    0.0204400 Isotope 14
                                    O   -0.0255800 Isotope 17
                                    Si    1.0000000 No Isotope Defined
 
                          Files used for pseudopotentials:
                                    H 1|0.6|9|10|15|10UU(qc=8)[]
                                    C 2|1.4|11|12|14.7|20UU:21UU(qc=7)[]
                                    N 2|1.1|12|16|19|20UU:21UU(qc=7)[]
                                    O 2|1.1|14|18|21|20UU:21UU(qc=7)[]
                                    Si 3|1.8|3.6|5|7|30UU:31UU:32UU[]
 
                           -------------------------------
                              k-Points For BZ Sampling
                           -------------------------------
                       MP grid size for SCF calculation is  1  1  1
                            with an offset of   0.000  0.000  0.000
                       Number of kpoints used =             1
 
                           -------------------------------
                               Symmetry and Constraints
                           -------------------------------
 
                      Maximum deviation from symmetry =  0.00000         ANG
 
                      Number of symmetry operations   =           1
                      Number of nonlinear constraints =           3
         There are no ionic constraints specified or generated for this cell
                      Point group of crystal =     1: C1, 1, 1
                      Space group of crystal =     1: P1, P 1
 
             Set iprint > 1 for details on symmetry rotations/translations
 
                         Centre of mass is NOT constrained
 
                         Number of cell constraints= 6
                         Cell constraints are:  0 0 0 0 0 0
 
                         External pressure/stress (GPa)
                          0.00000   0.00000   0.00000
                                    0.00000   0.00000
                                              0.00000
 
                                --------------------
                                  DFT-D parameters
                                --------------------
 
                          Dispersion-correction scheme : G06       
                        Parameter s6 :   0.750000 (default)
                        Parameter d  :  20.000000 (default)
 
        xxxxxxxxxxxxxxxxxxxxxxxxxxxxxxxxxxxxxxxxxxxxxxxxxxxxxxxxxxxxxxxxxxxx
        x              Atomic DFT-D parameters                             x
        x  Species      C6            R0                                   x
        x               eV A^6        Ang                                  x
        x------------------------------------------------------------------x
        x  H             1.4510       1.0010   (default)                   x
        x  C            18.1375       1.4520   (default)                   x
        x  N            12.7481       1.3970   (default)                   x
        x  O             7.2550       1.3420   (default)                   x
        x  Si           95.6622       1.7160   (default)                   x
        xxxxxxxxxxxxxxxxxxxxxxxxxxxxxxxxxxxxxxxxxxxxxxxxxxxxxxxxxxxxxxxxxxxx
 
 
+---------------- MEMORY AND SCRATCH DISK ESTIMATES PER PROCESS --------------+
|                                                     Memory          Disk    |
| Baseline code, static data and system overhead     6530.0 MB         0.0 MB |
| BLAS internal memory storage                          0.0 MB         0.0 MB |
| Model and support data                              540.6 MB         0.0 MB |
| Electronic energy minimisation requirements          31.8 MB         0.0 MB |
| Force calculation requirements                        6.8 MB         0.0 MB |
|                                               ----------------------------- |
| Approx. total storage required per process         7102.3 MB         0.0 MB |
|                                                                             |
| Requirements will fluctuate during execution and may exceed these estimates |
+-----------------------------------------------------------------------------+
Calculating approximate eigenstates for fixed initial Hamiltonian
Cut-off for approx. calculation is  119.774 eV
Improving approx. states at cut-off of  300.000 eV
Resetting cut-off to  600.000 eV
Calculating total energy with cut-off of  600.000 eV.
------------------------------------------------------------------------ <-- SCF
SCF loop      Energy                           Energy gain       Timer   <-- SCF
                                               per atom          (sec)   <-- SCF
------------------------------------------------------------------------ <-- SCF
Initial  -2.93947688E+003                                         30.55  <-- SCF
      1  -3.20283343E+003                    8.22989216E+000      31.35  <-- SCF
      2  -3.20343377E+003                    1.87605478E-002      32.25  <-- SCF
      3  -3.19287983E+003                   -3.29810636E-001      33.26  <-- SCF
      4  -3.19168309E+003                   -3.73982515E-002      34.45  <-- SCF
      5  -3.19107307E+003                   -1.90628948E-002      35.48  <-- SCF
      6  -3.19098540E+003                   -2.73965790E-003      36.75  <-- SCF
      7  -3.19093404E+003                   -1.60521493E-003      37.75  <-- SCF
      8  -3.19091889E+003                   -4.73356893E-004      38.86  <-- SCF
      9  -3.19091010E+003                   -2.74527309E-004      39.89  <-- SCF
     10  -3.19089885E+003                   -3.51839976E-004      40.95  <-- SCF
     11  -3.19087166E+003                   -8.49651384E-004      42.00  <-- SCF
     12  -3.19081146E+003                   -1.88105594E-003      43.00  <-- SCF
     13  -3.19074499E+003                   -2.07725581E-003      44.01  <-- SCF
     14  -3.19067245E+003                   -2.26683040E-003      45.03  <-- SCF
     15  -3.19062371E+003                   -1.52321418E-003      46.05  <-- SCF
     16  -3.19058386E+003                   -1.24536300E-003      47.03  <-- SCF
     17  -3.19055162E+003                   -1.00731607E-003      48.01  <-- SCF
     18  -3.19052747E+003                   -7.54948596E-004      49.01  <-- SCF
     19  -3.19050303E+003                   -7.63521865E-004      49.98  <-- SCF
     20  -3.19047745E+003                   -7.99320650E-004      51.00  <-- SCF
     21  -3.19045202E+003                   -7.94923641E-004      51.99  <-- SCF
     22  -3.19043805E+003                   -4.36385423E-004      52.98  <-- SCF
     23  -3.19043402E+003                   -1.25942714E-004      53.95  <-- SCF
     24  -3.19043435E+003                    1.03222095E-005      54.97  <-- SCF
     25  -3.19043948E+003                    1.60213598E-004      55.86  <-- SCF
     26  -3.19044279E+003                    1.03436147E-004      56.69  <-- SCF
     27  -3.19044890E+003                    1.91009784E-004      57.57  <-- SCF
     28  -3.19045273E+003                    1.19643219E-004      58.39  <-- SCF
     29  -3.19045517E+003                    7.60951672E-005      59.17  <-- SCF
     30  -3.19045826E+003                    9.67851163E-005      59.96  <-- SCF
     31  -3.19046067E+003                    7.51162172E-005      60.75  <-- SCF
     32  -3.19046224E+003                    4.91177492E-005      61.54  <-- SCF
     33  -3.19046388E+003                    5.12375301E-005      62.33  <-- SCF
     34  -3.19046440E+003                    1.64691498E-005      63.12  <-- SCF
     35  -3.19046531E+003                    2.84081682E-005      63.90  <-- SCF
     36  -3.19046578E+003                    1.44498048E-005      64.69  <-- SCF
     37  -3.19046626E+003                    1.50216486E-005      65.48  <-- SCF
     38  -3.19046661E+003                    1.10116261E-005      66.26  <-- SCF
     39  -3.19046705E+003                    1.36605359E-005      67.05  <-- SCF
     40  -3.19046738E+003                    1.02997626E-005      67.83  <-- SCF
     41  -3.19046760E+003                    6.87711064E-006      68.62  <-- SCF
     42  -3.19046778E+003                    5.80747937E-006      69.41  <-- SCF
     43  -3.19046789E+003                    3.36804730E-006      70.20  <-- SCF
     44  -3.19046802E+003                    4.03660011E-006      70.99  <-- SCF
     45  -3.19046807E+003                    1.58611464E-006      71.82  <-- SCF
     46  -3.19046812E+003                    1.56450900E-006      72.61  <-- SCF
     47  -3.19046814E+003                    7.56509275E-007      73.39  <-- SCF
     48  -3.19046816E+003                    4.81219351E-007      74.18  <-- SCF
------------------------------------------------------------------------ <-- SCF
 
Final energy =  -3190.468159276     eV
(energy not corrected for finite basis set)
 
(SEDC) Total Energy Correction : -0.753071E+00 eV

Dispersion corrected final energy* =  -3191.221230724     eV

Writing analysis data to Conf_0017.castep_bin

Writing model to Conf_0017.check

WARNING - nonlinear constraints cannot be used with LBFGS algorithm
        - consider setting geom_method=DELOCALIZED
 
        => Turning nonlinear constraints OFF
 
+---------------- MEMORY AND SCRATCH DISK ESTIMATES PER PROCESS --------------+
|                                                     Memory          Disk    |
| Model and support data                              550.1 MB         0.0 MB |
| Electronic energy minimisation requirements          31.8 MB         0.0 MB |
| Geometry minimisation requirements                   34.8 MB         0.0 MB |
|                                               ----------------------------- |
| Approx. total storage required per process          616.7 MB         0.0 MB |
|                                                                             |
| Requirements will fluctuate during execution and may exceed these estimates |
+-----------------------------------------------------------------------------+
 
 
 ************************************** Forces **************************************
 *                                                                                  *
 *                           Cartesian components (eV/A)                            *
 * -------------------------------------------------------------------------------- *
 *                         x                    y                    z              *
 *                                                                                  *
 * H               1     -0.10839              0.17870             -0.14826         *
 * H               2     -0.22545             -0.07515             -0.08395         *
 * H               3     -0.02187             -0.00592             -0.02825         *
 * H               4     -0.00050             -0.00137             -0.01103         *
 * H               5     -0.11319             -0.04129              0.13639         *
 * H               6     -0.00581              0.16625              0.16588         *
 * H               7      0.09762             -0.04747              0.05783         *
 * H               8      0.01710             -0.02815              0.07091         *
 * H               9      0.12861              0.02920              0.09707         *
 * H              10      0.05584              0.05373             -0.02821         *
 * H              11      0.35996              0.64431             -0.69321         *
 * H              12     -0.04147             -0.89992             -0.47208         *
 * H              13      0.90902              0.02179             -0.38823         *
 * H              14     -0.57150             -0.22081              0.19554         *
 * H              15     -0.07160              0.65026             -0.03818         *
 * H              16     -0.04146              0.09231             -0.05940         *
 * H              17     -0.07512             -0.02886             -0.03991         *
 * H              18     -0.08985             -0.01918             -0.14634         *
 * H              19      0.04871              0.03231             -0.05573         *
 * H              20      0.02360             -0.10385             -0.04148         *
 * C               1     -0.62053              0.47052              0.44640         *
 * C               2      0.01298             -0.01281              0.02190         *
 * C               3     -0.74137              0.49099             -0.07004         *
 * C               4     -0.09844              0.08929             -0.10066         *
 * C               5      0.44060              0.05613              0.13517         *
 * C               6      0.23817             -0.14483              0.05701         *
 * C               7     -0.08728              0.06013              0.11479         *
 * N               1      2.34672             -1.47812             -0.73361         *
 * O               1     -0.21757              1.09482             -0.12731         *
 * O               2     -0.61675             -0.75160              1.12947         *
 * O               3     -0.73527             -0.00845              0.67916         *
 * Si              1     -0.19550             -0.26294             -0.04167         *
 *                                                                                  *
 ************************************************************************************
 EXP precond LBFGS => estimated nearest neighbor distance :  1.625       A
 EXP precond LBFGS => estimated cutoff distance :  3.250       A
 doing test perturbation to get energy scale for EXP preconditioner
 
                           -------------------------------
                                     Cell Contents
                           -------------------------------
 
            xxxxxxxxxxxxxxxxxxxxxxxxxxxxxxxxxxxxxxxxxxxxxxxxxxxxxxxxxxxxxxxxx
            x  Element         Atom        Fractional coordinates of atoms  x
            x                 Number           u          v          w      x
            x---------------------------------------------------------------x
            x  H                 1         0.502942   0.421635   0.556369   x
            x  H                 2         0.571037   0.495278   0.548755   x
            x  H                 3         0.406775   0.480535   0.596380   x
            x  H                 4         0.473101   0.553612   0.588727   x
            x  H                 5         0.521964   0.488916   0.499239   x
            x  H                 6         0.451255   0.416178   0.506506   x
            x  H                 7         0.366830   0.544085   0.479804   x
            x  H                 8         0.296575   0.472983   0.487590   x
            x  H                 9         0.334245   0.480542   0.434055   x
            x  H                10         0.391144   0.410426   0.449210   x
            x  H                11         0.566889   0.595288   0.426380   x
            x  H                12         0.524742   0.440865   0.388365   x
            x  H                13         0.670596   0.453710   0.441263   x
            x  H                14         0.350827   0.479738   0.541604   x
            x  H                15         0.414223   0.547030   0.534412   x
            x  H                16         0.566569   0.425537   0.611008   x
            x  H                17         0.632263   0.498578   0.603405   x
            x  H                18         0.599396   0.488122   0.657560   x
            x  H                19         0.469476   0.483067   0.651108   x
            x  H                20         0.534534   0.556858   0.643294   x
            x  C                 1         0.500385   0.475473   0.557238   x
            x  C                 2         0.478802   0.499841   0.588631   x
            x  C                 3         0.447320   0.469770   0.504228   x
            x  C                 4         0.370951   0.490276   0.480839   x
            x  C                 5         0.393819   0.464345   0.449258   x
            x  C                 6         0.559704   0.479347   0.610746   x
            x  C                 7         0.539530   0.503174   0.642356   x
            x  N                 1         0.417438   0.497750   0.535256   x
            x  O                 1         0.529022   0.482505   0.397517   x
            x  O                 2         0.606028   0.451140   0.449611   x
            x  O                 3         0.535043   0.569113   0.440966   x
            x  Si                1         0.517607   0.492130   0.433196   x
            xxxxxxxxxxxxxxxxxxxxxxxxxxxxxxxxxxxxxxxxxxxxxxxxxxxxxxxxxxxxxxxxx
 
 
------------------------------------------------------------------------ <-- SCF
SCF loop      Energy                           Energy gain       Timer   <-- SCF
                                               per atom          (sec)   <-- SCF
------------------------------------------------------------------------ <-- SCF
Initial  -3.19185467E+003                                         76.12  <-- SCF
      1  -3.19044226E+003                   -4.41377145E-002      76.91  <-- SCF
      2  -3.19046578E+003                    7.35004037E-004      78.08  <-- SCF
      3  -3.19044182E+003                   -7.48930301E-004      79.08  <-- SCF
      4  -3.19045728E+003                    4.83229723E-004      80.09  <-- SCF
      5  -3.19045745E+003                    5.41867419E-006      80.88  <-- SCF
      6  -3.19045761E+003                    4.93293788E-006      81.64  <-- SCF
      7  -3.19045768E+003                    2.05668624E-006      82.40  <-- SCF
      8  -3.19045773E+003                    1.60503292E-006      83.16  <-- SCF
      9  -3.19045776E+003                    1.07080872E-006      83.92  <-- SCF
     10  -3.19045779E+003                    9.48929634E-007      84.68  <-- SCF
     11  -3.19045782E+003                    7.45948144E-007      85.44  <-- SCF
------------------------------------------------------------------------ <-- SCF
 
Final energy =  -3190.457816826     eV
(energy not corrected for finite basis set)
 
(SEDC) Total Energy Correction : -0.752828E+00 eV

Dispersion corrected final energy* =  -3191.210645105     eV
 
 ************************************** Forces **************************************
 *                                                                                  *
 *                           Cartesian components (eV/A)                            *
 * -------------------------------------------------------------------------------- *
 *                         x                    y                    z              *
 *                                                                                  *
 * H               1     -0.11304              0.05234             -0.16392         *
 * H               2     -0.23000             -0.05809             -0.10325         *
 * H               3      0.00159             -0.00511             -0.03895         *
 * H               4     -0.01482              0.13578             -0.01945         *
 * H               5     -0.13545             -0.02927              0.13322         *
 * H               6      0.00688              0.07703              0.17424         *
 * H               7      0.08438              0.09268              0.06765         *
 * H               8      0.08169             -0.02779              0.07185         *
 * H               9      0.17094              0.03824              0.11597         *
 * H              10      0.04396             -0.05879             -0.02195         *
 * H              11      0.39732              0.70136             -0.72079         *
 * H              12     -0.05367             -1.01654             -0.55726         *
 * H              13      0.91831              0.01186             -0.39316         *
 * H              14     -0.54556             -0.22082              0.18157         *
 * H              15     -0.07551              0.83289             -0.04260         *
 * H              16     -0.03490             -0.01613             -0.07074         *
 * H              17     -0.06272             -0.01727             -0.05298         *
 * H              18     -0.08954             -0.00677             -0.13017         *
 * H              19      0.08142              0.01185             -0.04732         *
 * H              20      0.01007              0.03541             -0.02556         *
 * C               1     -0.64031              0.51769              0.43502         *
 * C               2      0.00567             -0.09759              0.03546         *
 * C               3     -0.76051              0.54639             -0.08953         *
 * C               4     -0.11117             -0.00906             -0.08296         *
 * C               5      0.43549              0.11620              0.10637         *
 * C               6      0.21796             -0.10391              0.04014         *
 * C               7     -0.09631             -0.02732              0.13099         *
 * N               1      2.29101             -1.64448             -0.67448         *
 * O               1     -0.20129              1.21627             -0.07411         *
 * O               2     -0.57552             -0.79847              1.16357         *
 * O               3     -0.73353              0.15508              0.74479         *
 * Si              1     -0.27283             -0.40369             -0.09167         *
 *                                                                                  *
 ************************************************************************************
 EXP precond LBFGS => estimated parameter mu :  2.404       eV/A**2
 LBFGS: finished iteration     0 with enthalpy= -3.19122123E+003 eV
  
 +-----------+-----------------+-----------------+------------+-----+ <-- LBFGS
 | Parameter |      value      |    tolerance    |    units   | OK? | <-- LBFGS
 +-----------+-----------------+-----------------+------------+-----+ <-- LBFGS
 |  dE/ion   |   0.000000E+000 |   2.000000E-005 |         eV | No  | <-- LBFGS
 |  |F|max   |   2.899653E+000 |   5.000000E-002 |       eV/A | No  | <-- LBFGS
 |  |dR|max  |   7.995143E-015 |   2.000000E-003 |          A | No  | <-- LBFGS
 +-----------+-----------------+-----------------+------------+-----+ <-- LBFGS
  

================================================================================
 Starting LBFGS iteration          1 ...
================================================================================
  
 +------------+-------------+-------------+-----------------+ <-- min LBFGS
 |    Step    |   lambda    |   F.delta'  |    enthalpy     | <-- min LBFGS
 +------------+-------------+-------------+-----------------+ <-- min LBFGS
 |  previous  |    0.000000 |    1.854494 |    -3191.221231 | <-- min LBFGS
 +------------+-------------+-------------+-----------------+ <-- min LBFGS
  

--------------------------------------------------------------------------------
 LBFGS: starting iteration         1 with trial guess (lambda=  1.000000)
--------------------------------------------------------------------------------
 
                           -------------------------------
                                     Cell Contents
                           -------------------------------
 
            xxxxxxxxxxxxxxxxxxxxxxxxxxxxxxxxxxxxxxxxxxxxxxxxxxxxxxxxxxxxxxxxx
            x  Element         Atom        Fractional coordinates of atoms  x
            x                 Number           u          v          w      x
            x---------------------------------------------------------------x
            x  H                 1         0.501200   0.421951   0.555704   x
            x  H                 2         0.568718   0.495038   0.548175   x
            x  H                 3         0.405976   0.479956   0.595694   x
            x  H                 4         0.472351   0.553348   0.588059   x
            x  H                 5         0.520607   0.488927   0.499316   x
            x  H                 6         0.450713   0.416759   0.506562   x
            x  H                 7         0.368039   0.544360   0.479913   x
            x  H                 8         0.297743   0.472978   0.487721   x
            x  H                 9         0.336809   0.480896   0.434554   x
            x  H                10         0.393125   0.410570   0.449543   x
            x  H                11         0.560608   0.601840   0.425333   x
            x  H                12         0.517731   0.437321   0.385943   x
            x  H                13         0.673923   0.448353   0.442768   x
            x  H                14         0.351677   0.477591   0.541156   x
            x  H                15         0.417079   0.547586   0.533664   x
            x  H                16         0.565303   0.424990   0.610160   x
            x  H                17         0.630822   0.497847   0.602583   x
            x  H                18         0.597432   0.487306   0.656474   x
            x  H                19         0.468337   0.482424   0.650175   x
            x  H                20         0.533216   0.556035   0.642378   x
            x  C                 1         0.498067   0.475929   0.556994   x
            x  C                 2         0.477937   0.499390   0.588002   x
            x  C                 3         0.445549   0.470568   0.504021   x
            x  C                 4         0.371580   0.490607   0.480832   x
            x  C                 5         0.396342   0.464598   0.449705   x
            x  C                 6         0.559102   0.478458   0.610008   x
            x  C                 7         0.537922   0.502541   0.641540   x
            x  N                 1         0.424485   0.494675   0.534184   x
            x  O                 1         0.521753   0.484205   0.395856   x
            x  O                 2         0.603012   0.444674   0.452519   x
            x  O                 3         0.525308   0.573024   0.441585   x
            x  Si                1         0.512522   0.490869   0.433433   x
            xxxxxxxxxxxxxxxxxxxxxxxxxxxxxxxxxxxxxxxxxxxxxxxxxxxxxxxxxxxxxxxxx
 
 
------------------------------------------------------------------------ <-- SCF
SCF loop      Energy                           Energy gain       Timer   <-- SCF
                                               per atom          (sec)   <-- SCF
------------------------------------------------------------------------ <-- SCF
Initial  -3.20618181E+003                                         86.83  <-- SCF
      1  -3.18835060E+003                   -5.57225599E-001      87.62  <-- SCF
      2  -3.19012886E+003                    5.55706561E-002      88.85  <-- SCF
      3  -3.18971666E+003                   -1.28812906E-002      90.00  <-- SCF
      4  -3.18977483E+003                    1.81796874E-003      91.07  <-- SCF
      5  -3.18981423E+003                    1.23117486E-003      92.07  <-- SCF
      6  -3.18981693E+003                    8.45265894E-005      93.16  <-- SCF
      7  -3.18981824E+003                    4.10027563E-005      93.96  <-- SCF
      8  -3.18981915E+003                    2.83156415E-005      94.72  <-- SCF
      9  -3.18982017E+003                    3.17810251E-005      95.55  <-- SCF
     10  -3.18982064E+003                    1.48957460E-005      96.31  <-- SCF
     11  -3.18982087E+003                    7.17655565E-006      97.07  <-- SCF
     12  -3.18982120E+003                    1.01003643E-005      97.84  <-- SCF
     13  -3.18982126E+003                    2.04272324E-006      98.61  <-- SCF
     14  -3.18982142E+003                    5.00494237E-006      99.37  <-- SCF
     15  -3.18982148E+003                    1.92254543E-006     100.14  <-- SCF
     16  -3.18982159E+003                    3.15032105E-006     100.91  <-- SCF
     17  -3.18982163E+003                    1.37618976E-006     101.73  <-- SCF
     18  -3.18982169E+003                    2.02988842E-006     102.51  <-- SCF
     19  -3.18982174E+003                    1.37414138E-006     103.29  <-- SCF
     20  -3.18982179E+003                    1.68265322E-006     104.06  <-- SCF
     21  -3.18982183E+003                    1.10278204E-006     104.84  <-- SCF
     22  -3.18982185E+003                    8.25759903E-007     105.62  <-- SCF
------------------------------------------------------------------------ <-- SCF
 
Final energy =  -3189.821853649     eV
(energy not corrected for finite basis set)
 
(SEDC) Total Energy Correction : -0.755255E+00 eV

Dispersion corrected final energy* =  -3190.577108209     eV
 
 ************************************** Forces **************************************
 *                                                                                  *
 *                           Cartesian components (eV/A)                            *
 * -------------------------------------------------------------------------------- *
 *                         x                    y                    z              *
 *                                                                                  *
 * H               1      0.10560              0.05596              0.12453         *
 * H               2      0.06048             -0.11616              0.20979         *
 * H               3     -0.04915              0.02079              0.04861         *
 * H               4     -0.02741              0.06005              0.08069         *
 * H               5      0.04292             -0.10016             -0.25739         *
 * H               6      0.02804              0.16638             -0.20911         *
 * H               7     -0.01749              0.17807              0.00118         *
 * H               8     -0.06464              0.02182             -0.05670         *
 * H               9      0.08178              0.00577              0.06190         *
 * H              10      0.01618              0.02400              0.01647         *
 * H              11     -1.39655             -1.79627              2.02104         *
 * H              12      0.17040              2.82684              1.47584         *
 * H              13     -2.81268             -0.15983              1.24508         *
 * H              14      1.59470              0.61066             -0.52711         *
 * H              15      0.12590             -1.69700              0.03725         *
 * H              16      0.00341             -0.22407             -0.04960         *
 * H              17      0.14863              0.06219             -0.08128         *
 * H              18      0.13219             -0.07311              0.14275         *
 * H              19     -0.14117             -0.03694             -0.00068         *
 * H              20      0.00254              0.18205             -0.03394         *
 * C               1      1.11654             -0.72045             -0.32697         *
 * C               2     -0.35935              0.28638              0.28641         *
 * C               3      1.13904             -0.83983             -0.21707         *
 * C               4     -0.45311              0.28298              0.10725         *
 * C               5     -1.16855             -0.49054              0.31556         *
 * C               6     -0.16513              0.16174              0.01198         *
 * C               7      0.00254             -0.05687             -0.15619         *
 * N               1     -3.10328              1.86303              0.89839         *
 * O               1     -0.24621             -2.57206              0.14665         *
 * O               2      1.17807              1.27849             -2.22458         *
 * O               3      1.10944             -0.04506             -2.33659         *
 * Si              1      2.94631              0.84116             -0.75415         *
 *                                                                                  *
 ************************************************************************************
  
 +------------+-------------+-------------+-----------------+ <-- min LBFGS
 |    Step    |   lambda    |   F.delta'  |    enthalpy     | <-- min LBFGS
 +------------+-------------+-------------+-----------------+ <-- min LBFGS
 |  previous  |    0.000000 |    1.854494 |    -3191.221231 | <-- min LBFGS
 | trial step |    1.000000 |   -3.570456 |    -3190.577108 | <-- min LBFGS
 +------------+-------------+-------------+-----------------+ <-- min LBFGS
  

--------------------------------------------------------------------------------
 LBFGS: improving iteration         1 with line minimization (lambda=  0.341845)
--------------------------------------------------------------------------------
 
                           -------------------------------
                                     Cell Contents
                           -------------------------------
 
            xxxxxxxxxxxxxxxxxxxxxxxxxxxxxxxxxxxxxxxxxxxxxxxxxxxxxxxxxxxxxxxxx
            x  Element         Atom        Fractional coordinates of atoms  x
            x                 Number           u          v          w      x
            x---------------------------------------------------------------x
            x  H                 1         0.501574   0.421341   0.555933   x
            x  H                 2         0.569452   0.494956   0.548345   x
            x  H                 3         0.405800   0.480061   0.595955   x
            x  H                 4         0.472089   0.553439   0.588304   x
            x  H                 5         0.520719   0.488664   0.499037   x
            x  H                 6         0.450329   0.415966   0.506299   x
            x  H                 7         0.366585   0.544069   0.479609   x
            x  H                 8         0.296410   0.472687   0.487404   x
            x  H                 9         0.334504   0.480388   0.433988   x
            x  H                10         0.391136   0.410054   0.449088   x
            x  H                11         0.563950   0.597563   0.425784   x
            x  H                12         0.521563   0.439289   0.387301   x
            x  H                13         0.670960   0.451541   0.441540   x
            x  H                14         0.350479   0.478726   0.541235   x
            x  H                15         0.414491   0.547119   0.533939   x
            x  H                16         0.565344   0.424956   0.610536   x
            x  H                17         0.630983   0.498097   0.602938   x
            x  H                18         0.597932   0.487586   0.657035   x
            x  H                19         0.468333   0.482578   0.650631   x
            x  H                20         0.533299   0.556503   0.642818   x
            x  C                 1         0.498821   0.475341   0.556946   x
            x  C                 2         0.477747   0.499459   0.588222   x
            x  C                 3         0.445977   0.469741   0.503930   x
            x  C                 4         0.370503   0.490137   0.480604   x
            x  C                 5         0.393993   0.464118   0.449174   x
            x  C                 6         0.558708   0.478764   0.610311   x
            x  C                 7         0.538194   0.502739   0.641914   x
            x  N                 1         0.419135   0.496465   0.534672   x
            x  O                 1         0.525754   0.482815   0.396713   x
            x  O                 2         0.604205   0.448587   0.450369   x
            x  O                 3         0.530930   0.570411   0.440940   x
            x  Si                1         0.515090   0.491451   0.433039   x
            xxxxxxxxxxxxxxxxxxxxxxxxxxxxxxxxxxxxxxxxxxxxxxxxxxxxxxxxxxxxxxxxx
 
 
------------------------------------------------------------------------ <-- SCF
SCF loop      Energy                           Energy gain       Timer   <-- SCF
                                               per atom          (sec)   <-- SCF
------------------------------------------------------------------------ <-- SCF
Initial  -3.20154375E+003                                        106.95  <-- SCF
      1  -3.19039486E+003                   -3.48402869E-001     107.77  <-- SCF
      2  -3.19076259E+003                    1.14915610E-002     108.85  <-- SCF
      3  -3.19055644E+003                   -6.44219105E-003     109.85  <-- SCF
      4  -3.19060848E+003                    1.62647443E-003     110.94  <-- SCF
      5  -3.19062754E+003                    5.95624562E-004     111.94  <-- SCF
      6  -3.19062839E+003                    2.65310292E-005     112.83  <-- SCF
      7  -3.19062880E+003                    1.28198263E-005     113.59  <-- SCF
      8  -3.19062910E+003                    9.25369859E-006     114.35  <-- SCF
      9  -3.19062933E+003                    7.05727841E-006     115.11  <-- SCF
     10  -3.19062964E+003                    9.78322114E-006     115.87  <-- SCF
     11  -3.19062982E+003                    5.70572724E-006     116.66  <-- SCF
     12  -3.19063004E+003                    6.91906452E-006     117.44  <-- SCF
     13  -3.19063020E+003                    4.89843358E-006     118.20  <-- SCF
     14  -3.19063034E+003                    4.52980107E-006     118.97  <-- SCF
     15  -3.19063044E+003                    2.91077262E-006     119.74  <-- SCF
     16  -3.19063049E+003                    1.56509035E-006     120.51  <-- SCF
     17  -3.19063054E+003                    1.53260244E-006     121.28  <-- SCF
     18  -3.19063056E+003                    7.63996310E-007     122.05  <-- SCF
     19  -3.19063058E+003                    5.33771143E-007     122.83  <-- SCF
------------------------------------------------------------------------ <-- SCF
 
Final energy =  -3190.630578401     eV
(energy not corrected for finite basis set)
 
(SEDC) Total Energy Correction : -0.753669E+00 eV

Dispersion corrected final energy* =  -3191.384247764     eV
 
 ************************************** Forces **************************************
 *                                                                                  *
 *                           Cartesian components (eV/A)                            *
 * -------------------------------------------------------------------------------- *
 *                         x                    y                    z              *
 *                                                                                  *
 * H               1     -0.03852              0.13898             -0.06292         *
 * H               2     -0.13483             -0.09224              0.01040         *
 * H               3     -0.02907              0.00062             -0.00017         *
 * H               4     -0.00765              0.01662              0.02089         *
 * H               5     -0.06249             -0.06302              0.01352         *
 * H               6      0.00478              0.16331              0.04708         *
 * H               7      0.05995              0.02677              0.03675         *
 * H               8     -0.00769             -0.01306              0.02469         *
 * H               9      0.13037              0.02123              0.08985         *
 * H              10      0.04241              0.04020             -0.01558         *
 * H              11     -0.39136             -0.42499              0.45916         *
 * H              12      0.08671              0.67304              0.39903         *
 * H              13     -0.69250             -0.03897              0.28282         *
 * H              14      0.30511              0.12791             -0.09559         *
 * H              15     -0.00211             -0.29987             -0.00404         *
 * H              16     -0.02408             -0.01625             -0.05556         *
 * H              17      0.00214             -0.00097             -0.05373         *
 * H              18     -0.01380             -0.04046             -0.05408         *
 * H              19     -0.01390              0.00638             -0.03781         *
 * H              20      0.01869             -0.01126             -0.04153         *
 * C               1     -0.09292              0.09479              0.15082         *
 * C               2     -0.10608              0.08124              0.10514         *
 * C               3     -0.14190              0.07841             -0.04699         *
 * C               4     -0.20514              0.14681             -0.02959         *
 * C               5     -0.04643             -0.11122              0.15911         *
 * C               6      0.10132             -0.04340              0.04147         *
 * C               7     -0.05339              0.01713              0.02264         *
 * N               1      0.38376             -0.23718             -0.19959         *
 * O               1     -0.25995             -0.44848             -0.10345         *
 * O               2      0.12382              0.05002             -0.23435         *
 * O               3      0.03810              0.07631             -0.60365         *
 * Si              1      1.02667              0.08159             -0.22475         *
 *                                                                                  *
 ************************************************************************************
  
 +------------+-------------+-------------+-----------------+ <-- min LBFGS
 |    Step    |   lambda    |   F.delta'  |    enthalpy     | <-- min LBFGS
 +------------+-------------+-------------+-----------------+ <-- min LBFGS
 |  previous  |    0.000000 |    1.854494 |    -3191.221231 | <-- min LBFGS
 | trial step |    1.000000 |   -3.570456 |    -3190.577108 | <-- min LBFGS
 |  line step |    0.341845 |   -0.269628 |    -3191.384248 | <-- min LBFGS
 +------------+-------------+-------------+-----------------+ <-- min LBFGS
  
 LBFGS: finished iteration     1 with enthalpy= -3.19138425E+003 eV
  
 +-----------+-----------------+-----------------+------------+-----+ <-- LBFGS
 | Parameter |      value      |    tolerance    |    units   | OK? | <-- LBFGS
 +-----------+-----------------+-----------------+------------+-----+ <-- LBFGS
 |  dE/ion   |   5.094283E-003 |   2.000000E-005 |         eV | No  | <-- LBFGS
 |  |F|max   |   1.054146E+000 |   5.000000E-002 |       eV/A | No  | <-- LBFGS
 |  |dR|max  |   6.568588E-002 |   2.000000E-003 |          A | No  | <-- LBFGS
 +-----------+-----------------+-----------------+------------+-----+ <-- LBFGS
  

================================================================================
 Starting LBFGS iteration          2 ...
================================================================================
  
 +------------+-------------+-------------+-----------------+ <-- min LBFGS
 |    Step    |   lambda    |   F.delta'  |    enthalpy     | <-- min LBFGS
 +------------+-------------+-------------+-----------------+ <-- min LBFGS
 |  previous  |    0.000000 |    0.642137 |    -3191.384248 | <-- min LBFGS
 +------------+-------------+-------------+-----------------+ <-- min LBFGS
  

--------------------------------------------------------------------------------
 LBFGS: starting iteration         2 with trial guess (lambda=  1.000000)
--------------------------------------------------------------------------------
 
                           -------------------------------
                                     Cell Contents
                           -------------------------------
 
            xxxxxxxxxxxxxxxxxxxxxxxxxxxxxxxxxxxxxxxxxxxxxxxxxxxxxxxxxxxxxxxxx
            x  Element         Atom        Fractional coordinates of atoms  x
            x                 Number           u          v          w      x
            x---------------------------------------------------------------x
            x  H                 1         0.501658   0.422099   0.555576   x
            x  H                 2         0.568913   0.494754   0.548112   x
            x  H                 3         0.405894   0.480039   0.595630   x
            x  H                 4         0.472298   0.553437   0.588018   x
            x  H                 5         0.521003   0.488759   0.499108   x
            x  H                 6         0.451299   0.417035   0.506405   x
            x  H                 7         0.368364   0.544539   0.479883   x
            x  H                 8         0.297892   0.473113   0.487682   x
            x  H                 9         0.337662   0.480873   0.434735   x
            x  H                10         0.393676   0.410623   0.449610   x
            x  H                11         0.557991   0.596102   0.426042   x
            x  H                12         0.519165   0.442280   0.388325   x
            x  H                13         0.664898   0.450060   0.442958   x
            x  H                14         0.353904   0.478172   0.540830   x
            x  H                15         0.417441   0.546280   0.533541   x
            x  H                16         0.565311   0.424794   0.609951   x
            x  H                17         0.631003   0.497824   0.602369   x
            x  H                18         0.597461   0.487121   0.656253   x
            x  H                19         0.468120   0.482334   0.649940   x
            x  H                20         0.533193   0.556048   0.642131   x
            x  C                 1         0.498694   0.475770   0.556876   x
            x  C                 2         0.477737   0.499546   0.587980   x
            x  C                 3         0.446276   0.470433   0.503870   x
            x  C                 4         0.371493   0.490855   0.480801   x
            x  C                 5         0.396480   0.464401   0.449848   x
            x  C                 6         0.559156   0.478420   0.609849   x
            x  C                 7         0.537822   0.502458   0.641311   x
            x  N                 1         0.424167   0.494975   0.534065   x
            x  O                 1         0.522374   0.484471   0.397263   x
            x  O                 2         0.599988   0.446906   0.451665   x
            x  O                 3         0.526049   0.569726   0.440680   x
            x  Si                1         0.517609   0.491362   0.433247   x
            xxxxxxxxxxxxxxxxxxxxxxxxxxxxxxxxxxxxxxxxxxxxxxxxxxxxxxxxxxxxxxxxx
 
 
------------------------------------------------------------------------ <-- SCF
SCF loop      Energy                           Energy gain       Timer   <-- SCF
                                               per atom          (sec)   <-- SCF
------------------------------------------------------------------------ <-- SCF
Initial  -3.20600243E+003                                        124.17  <-- SCF
      1  -3.19045228E+003                   -4.85942322E-001     124.99  <-- SCF
      2  -3.19066290E+003                    6.58198773E-003     126.13  <-- SCF
      3  -3.19054748E+003                   -3.60686430E-003     127.13  <-- SCF
      4  -3.19060977E+003                    1.94650958E-003     128.13  <-- SCF
      5  -3.19061393E+003                    1.29799932E-004     129.25  <-- SCF
      6  -3.19061420E+003                    8.66345992E-006     130.13  <-- SCF
      7  -3.19061408E+003                   -3.79852741E-006     130.94  <-- SCF
      8  -3.19061390E+003                   -5.58920972E-006     131.85  <-- SCF
      9  -3.19061399E+003                    2.67313316E-006     132.62  <-- SCF
     10  -3.19061420E+003                    6.57885116E-006     133.38  <-- SCF
     11  -3.19061467E+003                    1.47021712E-005     134.14  <-- SCF
     12  -3.19061507E+003                    1.25849006E-005     134.90  <-- SCF
     13  -3.19061544E+003                    1.15508868E-005     135.67  <-- SCF
     14  -3.19061571E+003                    8.51399024E-006     136.43  <-- SCF
     15  -3.19061587E+003                    4.77109554E-006     137.20  <-- SCF
     16  -3.19061595E+003                    2.70747645E-006     137.97  <-- SCF
     17  -3.19061603E+003                    2.53900734E-006     138.73  <-- SCF
     18  -3.19061608E+003                    1.44854706E-006     139.51  <-- SCF
     19  -3.19061611E+003                    8.62973307E-007     140.29  <-- SCF
     20  -3.19061613E+003                    5.51908540E-007     141.06  <-- SCF
------------------------------------------------------------------------ <-- SCF
 
Final energy =  -3190.616126573     eV
(energy not corrected for finite basis set)
 
(SEDC) Total Energy Correction : -0.761500E+00 eV

Dispersion corrected final energy* =  -3191.377626614     eV
 
 ************************************** Forces **************************************
 *                                                                                  *
 *                           Cartesian components (eV/A)                            *
 * -------------------------------------------------------------------------------- *
 *                         x                    y                    z              *
 *                                                                                  *
 * H               1      0.07195             -0.12212              0.12390         *
 * H               2      0.20808             -0.02135              0.14464         *
[...]
 * H              18      0.00008             -0.00193             -0.00087         *
 * H              19     -0.00105              0.00200              0.00113         *
 * H              20      0.00279              0.00021              0.00015         *
 * C               1     -0.00008             -0.00021              0.00176         *
 * C               2      0.00156             -0.00138             -0.00045         *
 * C               3      0.00010              0.00194              0.00296         *
 * C               4     -0.00133              0.00045              0.00013         *
 * C               5      0.00492             -0.00237             -0.00281         *
 * C               6     -0.00039             -0.00097              0.00322         *
 * C               7      0.00163             -0.00179              0.00139         *
 * N               1      0.00260              0.00389             -0.00188         *
 * O               1     -0.00091             -0.00653             -0.01207         *
 * O               2     -0.00019              0.00420             -0.00244         *
 * O               3      0.00319              0.01441             -0.00901         *
 * Si              1     -0.00021             -0.00834              0.01050         *
 *                                                                                  *
 ************************************************************************************
 
 Pseudo atomic calculation performed for H 1s1
 
 Converged in 13 iterations to a total energy of -12.4790 eV
 
 Pseudo atomic calculation performed for C 2s2 2p2
 
 Converged in 17 iterations to a total energy of -148.5208 eV
 
 Pseudo atomic calculation performed for N 2s2 2p3
 
 Converged in 21 iterations to a total energy of -268.1820 eV
 
 Pseudo atomic calculation performed for O 2s2 2p4
 
 Converged in 23 iterations to a total energy of -432.6536 eV
 
 Pseudo atomic calculation performed for Si 3s2 3p2
 
 Converged in 11 iterations to a total energy of -165.0683 eV
Charge spilling parameter for spin component 1 = 1.56%
 
            Orbital Populations       
     Ion    Atom   Orbital             Charge
  -------------------------------------------
      H     1      S                    0.685
      H     2      S                    0.686
      H     3      S                    0.732
      H     4      S                    0.730
      H     5      S                    0.693
      H     6      S                    0.687
      H     7      S                    0.722
      H     8      S                    0.732
      H     9      S                    0.695
      H    10      S                    0.723
      H    11      S                    0.456
      H    12      S                    0.454
      H    13      S                    0.470
      H    14      S                    0.512
      H    15      S                    0.508
      H    16      S                    0.725
      H    17      S                    0.731
      H    18      S                    0.699
      H    19      S                    0.726
      H    20      S                    0.728
      C     1      S                    1.302
      C     1      Px                   0.999
      C     1      Py                   1.206
      C     1      Pz                   0.899
      C     2      S                    1.299
      C     2      Px                   1.123
      C     2      Py                   1.167
      C     2      Pz                   0.934
      C     3      S                    1.295
      C     3      Px                   1.164
      C     3      Py                   1.180
      C     3      Pz                   0.757
      C     4      S                    1.299
      C     4      Px                   1.086
      C     4      Py                   1.166
      C     4      Pz                   0.975
      C     5      S                    1.408
      C     5      Px                   1.303
      C     5      Py                   1.214
      C     5      Pz                   1.041
      C     6      S                    1.305
      C     6      Px                   1.074
      C     6      Py                   1.167
      C     6      Pz                   0.965
      C     7      S                    1.400
      C     7      Px                   1.205
      C     7      Py                   1.172
      C     7      Pz                   1.018
      N     1      S                    1.586
      N     1      Px                   1.368
      N     1      Py                   1.411
      N     1      Pz                   1.271
      O     1      S                    1.853
      O     1      Px                   1.896
      O     1      Py                   1.679
      O     1      Pz                   1.665
      O     2      S                    1.858
      O     2      Px                   1.519
      O     2      Py                   1.869
      O     2      Pz                   1.855
      O     3      S                    1.853
      O     3      Px                   1.877
      O     3      Py                   1.600
      O     3      Pz                   1.786
     Si     1      S                    0.727
     Si     1      Px                   0.466
     Si     1      Py                   0.317
     Si     1      Pz                   0.324
  -------------------------------------------
                           Total:      74.000
  -------------------------------------------
 
     Atomic Populations (Mulliken)
     -----------------------------
Species          Ion     s       p       d       f      Total   Charge (e)
==========================================================================
  H               1     0.685   0.000   0.000   0.000   0.685     0.315
  H               2     0.686   0.000   0.000   0.000   0.686     0.314
  H               3     0.732   0.000   0.000   0.000   0.732     0.268
  H               4     0.730   0.000   0.000   0.000   0.730     0.270
  H               5     0.693   0.000   0.000   0.000   0.693     0.307
  H               6     0.687   0.000   0.000   0.000   0.687     0.313
  H               7     0.722   0.000   0.000   0.000   0.722     0.278
  H               8     0.732   0.000   0.000   0.000   0.732     0.268
  H               9     0.695   0.000   0.000   0.000   0.695     0.305
  H              10     0.723   0.000   0.000   0.000   0.723     0.277
  H              11     0.456   0.000   0.000   0.000   0.456     0.544
  H              12     0.454   0.000   0.000   0.000   0.454     0.546
  H              13     0.470   0.000   0.000   0.000   0.470     0.530
  H              14     0.512   0.000   0.000   0.000   0.512     0.488
  H              15     0.508   0.000   0.000   0.000   0.508     0.492
  H              16     0.725   0.000   0.000   0.000   0.725     0.275
  H              17     0.731   0.000   0.000   0.000   0.731     0.269
  H              18     0.699   0.000   0.000   0.000   0.699     0.301
  H              19     0.726   0.000   0.000   0.000   0.726     0.274
  H              20     0.728   0.000   0.000   0.000   0.728     0.272
  C               1     1.302   3.104   0.000   0.000   4.406    -0.406
  C               2     1.299   3.225   0.000   0.000   4.524    -0.524
  C               3     1.295   3.101   0.000   0.000   4.396    -0.396
  C               4     1.299   3.228   0.000   0.000   4.527    -0.527
  C               5     1.408   3.559   0.000   0.000   4.967    -0.967
  C               6     1.305   3.205   0.000   0.000   4.510    -0.510
  C               7     1.400   3.395   0.000   0.000   4.795    -0.795
  N               1     1.586   4.049   0.000   0.000   5.635    -0.635
  O               1     1.853   5.240   0.000   0.000   7.093    -1.093
  O               2     1.858   5.242   0.000   0.000   7.101    -1.101
  O               3     1.853   5.263   0.000   0.000   7.116    -1.116
  Si              1     0.727   1.108   0.000   0.000   1.835     2.165
==========================================================================
 
                 Bond                   Population      Length (A)
======================================================================
              H 12 -- O 1                    0.53        0.96791
              H 11 -- O 3                    0.53        0.96978
              H 13 -- O 2                    0.53        0.97055
              H 15 -- N 1                    0.67        1.02860
              H 14 -- N 1                    0.67        1.02903
              H 18 -- C 7                    0.81        1.09717
              H 5  -- C 3                    0.87        1.09736
              H 1  -- C 1                    0.85        1.09766
              H 2  -- C 1                    0.85        1.09781
              H 6  -- C 3                    0.85        1.09840
              H 19 -- C 7                    0.81        1.09904
              H 20 -- C 7                    0.81        1.09974
              H 9  -- C 5                    0.82        1.09988
              H 16 -- C 6                    0.84        1.10215
              H 10 -- C 5                    0.82        1.10234
              H 17 -- C 6                    0.84        1.10256
              H 4  -- C 2                    0.84        1.10311
              H 7  -- C 4                    0.85        1.10324
              H 8  -- C 4                    0.84        1.10404
              H 3  -- C 2                    0.84        1.10444
               C 3 -- N 1                    0.51        1.50813
               C 1 -- N 1                    0.51        1.51279
               C 1 -- C 2                    0.71        1.51852
               C 3 -- C 4                    0.70        1.51916
               C 6 -- C 7                    0.65        1.52718
               C 2 -- C 6                    0.68        1.53504
               C 4 -- C 5                    0.64        1.53921
               O 1 -- Si 1                   0.52        1.63673
              H 14 -- H 15                  -0.12        1.64050
               O 3 -- Si 1                   0.49        1.64672
               O 2 -- Si 1                   0.48        1.66058
              H 9  -- H 10                  -0.09        1.76440
              H 16 -- H 17                  -0.12        1.76869
              H 18 -- H 19                  -0.10        1.77245
              H 18 -- H 20                  -0.10        1.77628
              H 3  -- H 4                   -0.12        1.77711
              H 5  -- H 6                   -0.11        1.77726
              H 1  -- H 2                   -0.11        1.77877
              H 7  -- H 8                   -0.12        1.78219
              H 19 -- H 20                  -0.10        1.78230
               C 5 -- Si 1                   0.60        1.88010
              H 15 -- C 3                   -0.12        2.08041
              H 15 -- C 1                   -0.12        2.08534
              H 14 -- C 1                   -0.12        2.09063
              H 14 -- C 3                   -0.12        2.09299
              H 2  -- N 1                   -0.11        2.09678
              H 1  -- N 1                   -0.11        2.10106
              H 5  -- N 1                   -0.11        2.10562
              H 6  -- N 1                   -0.11        2.10682
              H 8  -- C 3                   -0.14        2.15029
              H 7  -- C 3                   -0.13        2.15160
              H 9  -- C 4                   -0.12        2.15686
              H 3  -- C 1                   -0.14        2.16083
              H 4  -- C 1                   -0.14        2.16310
              H 17 -- C 7                   -0.13        2.16316
              H 4  -- C 6                   -0.12        2.16329
              H 16 -- C 2                   -0.13        2.16383
              H 17 -- C 2                   -0.13        2.16554
              H 3  -- C 6                   -0.12        2.16753
              H 16 -- C 7                   -0.13        2.16806
              H 7  -- C 5                   -0.13        2.17160
              H 18 -- C 6                   -0.12        2.17507
              H 20 -- C 6                   -0.12        2.17740
              H 10 -- C 4                   -0.12        2.17861
              H 19 -- C 6                   -0.12        2.17875
              H 8  -- C 5                   -0.13        2.18051
              H 1  -- C 2                   -0.12        2.18107
              H 5  -- C 4                   -0.11        2.18265
              H 2  -- C 2                   -0.12        2.18359
              H 6  -- C 4                   -0.12        2.18367
              H 11 -- Si 1                  -0.13        2.27458
              H 13 -- Si 1                  -0.14        2.27829
              H 12 -- Si 1                  -0.12        2.29334
              H 2  -- H 15                  -0.04        2.38628
              H 5  -- O 2                   -0.00        2.39876
              H 6  -- H 14                  -0.04        2.40772
              H 2  -- H 5                   -0.02        2.43183
              H 5  -- H 15                  -0.03        2.43330
              H 1  -- H 14                  -0.03        2.43636
              H 7  -- H 15                  -0.01        2.44385
              H 9  -- Si 1                  -0.13        2.44418
              H 1  -- H 6                   -0.02        2.46449
              H 8  -- H 9                   -0.04        2.46761
              H 10 -- Si 1                  -0.12        2.47643
              H 3  -- H 14                  -0.01        2.49092
               C 4 -- N 1                   -0.14        2.49153
              H 8  -- H 14                  -0.00        2.49153
              H 3  -- H 16                  -0.04        2.49488
              H 16 -- H 18                  -0.03        2.49652
              H 7  -- H 9                   -0.03        2.49872
              H 17 -- H 20                  -0.03        2.51017
              H 17 -- H 18                  -0.03        2.51207
              H 5  -- H 7                   -0.03        2.51213
               C 2 -- N 1                   -0.13        2.51660
               C 1 -- C 6                   -0.15        2.51676
              H 8  -- H 10                  -0.03        2.52006
              H 6  -- H 8                   -0.04        2.52231
              H 2  -- H 4                   -0.03        2.52418
               C 3 -- C 5                   -0.15        2.52434
              H 4  -- H 17                  -0.03        2.52892
              H 1  -- H 3                   -0.03        2.53173
               C 2 -- C 7                   -0.15        2.53717
              H 16 -- H 19                  -0.03        2.53828
               C 1 -- C 3                   -0.14        2.53832
              H 4  -- H 15                  -0.00        2.55155
              H 2  -- H 17                  -0.01        2.55493
              H 4  -- H 20                  -0.01        2.56002
              H 1  -- H 16                  -0.01        2.57707
              H 3  -- H 19                  -0.01        2.59079
              H 6  -- H 10                  -0.01        2.60723
               O 1 -- O 3                   -0.08        2.64170
              H 15 -- C 4                   -0.04        2.64777
              H 14 -- C 2                   -0.03        2.68689
              H 11 -- O 1                   -0.01        2.69624
              H 5  -- C 1                   -0.04        2.70094
              H 1  -- C 3                   -0.04        2.70133
              H 14 -- C 4                   -0.03        2.70935
              H 8  -- N 1                   -0.03        2.71030
              H 17 -- C 1                   -0.04        2.71912
              H 15 -- C 2                   -0.03        2.72436
              H 7  -- N 1                   -0.03        2.72597
               O 2 -- O 3                   -0.07        2.72646
              H 2  -- C 3                   -0.03        2.72940
              H 4  -- C 7                   -0.04        2.73847
               O 1 -- O 2                   -0.07        2.74930
              H 3  -- N 1                   -0.03        2.75472
              H 16 -- C 1                   -0.04        2.75948
              H 6  -- C 1                   -0.03        2.75979
              H 4  -- N 1                   -0.02        2.77297
              H 7  -- O 3                    0.00        2.77742
              H 10 -- C 3                   -0.04        2.78136
              H 1  -- C 6                   -0.03        2.78837
              H 3  -- C 7                   -0.03        2.78966
              H 19 -- C 2                   -0.04        2.79081
               C 5 -- O 2                   -0.11        2.79229
              H 6  -- C 5                   -0.03        2.80141
              H 2  -- C 6                   -0.03        2.80749
              H 5  -- C 5                   -0.03        2.80894
              H 20 -- C 2                   -0.04        2.81262
               C 5 -- O 3                   -0.10        2.83146
               C 4 -- Si 1                  -0.13        2.88501
              H 5  -- Si 1                  -0.03        2.90834
              H 10 -- O 2                   -0.01        2.92756
              H 8  -- H 15                  -0.00        2.94763
              H 1  -- H 5                   -0.00        2.95100
              H 1  -- H 15                   0.03        2.95422
              H 2  -- H 14                   0.03        2.95491
              H 6  -- H 15                   0.03        2.95762
              H 5  -- H 14                   0.03        2.96522
               C 5 -- O 1                   -0.08        2.96872
              H 13 -- O 1                   -0.01        2.96990
======================================================================
 
 
     Hirshfeld Analysis
     ------------------
Species   Ion     Hirshfeld Charge (e)
======================================
  H        1                 0.07
  H        2                 0.07
  H        3                 0.05
  H        4                 0.05
  H        5                 0.05
  H        6                 0.07
  H        7                 0.05
  H        8                 0.04
  H        9                 0.06
  H       10                 0.05
  H       11                 0.18
  H       12                 0.18
  H       13                 0.17
  H       14                 0.18
  H       15                 0.18
  H       16                 0.05
  H       17                 0.04
  H       18                 0.06
  H       19                 0.05
  H       20                 0.04
  C        1                 0.01
  C        2                -0.06
  C        3                 0.01
  C        4                -0.06
  C        5                -0.14
  C        6                -0.05
  C        7                -0.10
  N        1                 0.03
  O        1                -0.28
  O        2                -0.28
  O        3                -0.29
  Si       1                 0.47
======================================
 

Writing analysis data to Conf_0017.castep_bin

Writing model to Conf_0017.check
 
 A BibTeX formatted list of references used in this run has been written to 
 Conf_0017.bib
 
Initialisation time =     24.65 s
Calculation time    =    565.08 s
Finalisation time   =      1.05 s
Total time          =    590.77 s
Peak Memory Use     = 7916536 kB
 
Overall parallel efficiency rating: Satisfactory (66%)
 
Data was distributed by:-
G-vector (48-way); efficiency rating: Satisfactory (66%)
 
Parallel notes:
1) Calculation only took 589.7 s, so efficiency estimates may be inaccurate.
High Water Mark     = 1887692 kB
