 Job started on host drago31040142.mgmt.cc.csic.es
 at Sun Mar 31 01:30:34 2024

 +-------------------------------------------------+
 |                                                 |
 |      CCC   AA    SSS  TTTTT  EEEEE  PPPP        |
 |     C     A  A  S       T    E      P   P       |
 |     C     AAAA   SS     T    EEE    PPPP        |
 |     C     A  A     S    T    E      P           |
 |      CCC  A  A  SSS     T    EEEEE  P           |
 |                                                 |
 +-------------------------------------------------+
 |                                                 |
 | Materials Studio CASTEP version 2024            |
 | Ab Initio Total Energy Program                  |
 |                                                 |
 | Authors:                                        |
 | M. Segall, M. Probert, C. Pickard, P. Hasnip,   |
 | S. Clark, K. Refson, J. R. Yates,               |
 | A. Bartok-Partay, M. Payne                      |
 |                                                 |
 | Contributors:                                   |
 | P. Lindan, P. Haynes, J. White, V. Milman,      |
 | N. Govind, M. Gibson, P. Tulip, V. Cocula,      |
 | B. Montanari, D. Quigley, M. Glover,            |
 | L. Bernasconi, A. Perlov, M. Plummer,           |
 | E. McNellis, J. Meyer, J. Gale, D. Jochym       |
 | J. Aarons, B. Walker, R. Gillen, D. Jones       |
 | T. Green, I. J. Bush, C. J. Armstrong,          |
 | E. J. Higgins, E. L. Brown, M. S. McFly,        |
 | J. Wilkins, B-C. Shih, P. J. P. Byrne,          |
 | R. J. Maurer, J. C. Womack, J. Dziedzic,        |
 | L. LeBlanc, T. K. Stenczel, J. Kermode,         |
 | S. Sturniolo, B. Shi, B. Durham, M. Evans,      |
 | M. J. Smith, A. Tamerus, Z. Hawkhead,           |
 | V. Ravindran, T. Hollins, S. A. Joyce,          |
 | R. T. Strong, A. M. Reilly                      |
 |                                                 |
 | Copyright (c) 2000 - 2023                       |
 |                                                 |
 | Please cite                                     |
 |                                                 |
 |     "First principles methods using CASTEP"     |
 |                                                 |
 |         Zeitschrift fuer Kristallographie       |
 |           220(5-6) pp. 567-570 (2005)           |
 |                                                 |
 | S. J. Clark, M. D. Segall, C. J. Pickard,       |
 | P. J. Hasnip, M. J. Probert, K. Refson,         |
 | M. C. Payne                                     |
 |                                                 |
 |       in all publications arising from          |
 |              your use of CASTEP                 |
 |                                                 |
 +-------------------------------------------------+
 |                                                 |
 |              http://www.castep.org              |
 |                                                 |
 +-------------------------------------------------+
 
 
 This version was compiled for x86_64-rhel7-intel19.0 on Oct 24 2023
 Code version:    a9f326b
 Intel(R) Math Kernel Library Version 2019.0.4 
 Fundamental constants values: CODATA 2018
 
License checkout of MS_castep successful
 
 
 Atomic calculation performed for H: 1s1
 
 Converged in 41 iterations to an ae energy of -12.488 eV
 
 Identity difference: 2.63E-05
 
   ============================================================                
   | Pseudopotential Report - Date of generation 31-03-2024   |                
   ------------------------------------------------------------                
   | Element: H Ionic charge:  1.00 Level of theory: PBE      |                
   | Atomic Solver: Koelling-Harmon                           |                
   |                                                          |                
   |               Reference Electronic Structure             |                
   |         Orbital         Occupation         Energy        |                
   |            1s              1.000           -0.239        |                
   |                                                          |                
   |                 Pseudopotential Definition               |                
   |        Beta     l      e      Rc     scheme   norm       |                
   |          1      0   -0.239   0.599     qc      0         |                
   |          2      0    0.250   0.599     qc      0         |                
   |         loc     1    0.000   0.599     pn      0         |                
   |                                                          |                
   | Augmentation charge Rinner = 0.421                       |                
   | No partial core correction                               |                
   ------------------------------------------------------------                
   | "1|0.6|9|10|15|10UU(qc=8)[]"                             |                
   ------------------------------------------------------------                
   |      Author: Chris J. Pickard, Cambridge University      |                
   ============================================================                
 
 Doing a self consistent calculation for the test configuration
 
 Atomic calculation performed for H: 1s1
 
 Converged in 41 iterations to an ae energy of -12.488 eV
 
 ---------------------------------------
 AE eigenvalue nl 10 =       -0.23860176
 ---------------------------------------
 PS eigenvalue nl 10 =       -0.23857601
 ---------------------------------------
 Maximum eigenvalue error:   2.57E-05
 
 Derived cutoff energies: C=   1 M=   6 F=  10 E=  20
 
 Checking for ghost states up to   1.51185 Ha
 
 No Ghost States Identified
 
 ***************************************
 
 Atomic calculation performed for C: 1s2 2s2 2p2
 
 Converged in 54 iterations to an ae energy of -1027.632 eV
 
 Identity difference: 2.37E-04
 
   ============================================================                
   | Pseudopotential Report - Date of generation 31-03-2024   |                
   ------------------------------------------------------------                
   | Element: C Ionic charge:  4.00 Level of theory: PBE      |                
   | Atomic Solver: Koelling-Harmon                           |                
   |                                                          |                
   |               Reference Electronic Structure             |                
   |         Orbital         Occupation         Energy        |                
   |            2s              2.000           -0.505        |                
   |            2p              2.000           -0.194        |                
   |                                                          |                
   |                 Pseudopotential Definition               |                
   |        Beta     l      e      Rc     scheme   norm       |                
   |          1      0   -0.505   1.395     qc      0         |                
   |          2      0    0.250   1.395     qc      0         |                
   |          3      1   -0.194   1.395     qc      0         |                
   |          4      1    0.250   1.395     qc      0         |                
   |         loc     2    0.000   1.395     pn      0         |                
   |                                                          |                
   | Augmentation charge Rinner = 0.983                       |                
   | Partial core correction Rc = 0.983                       |                
   ------------------------------------------------------------                
   | "2|1.4|11|12|14.7|20UU:21UU(qc=7)[]"                     |                
   ------------------------------------------------------------                
   |      Author: Chris J. Pickard, Cambridge University      |                
   ============================================================                
 
 Doing a self consistent calculation for the test configuration
 
 Atomic calculation performed for C: 1s2 2s2 2p2
 
 Converged in 54 iterations to an ae energy of -1027.632 eV
 
 ---------------------------------------
 AE eigenvalue nl 10 =      -10.04653081
 AE eigenvalue nl 20 =       -0.50533429
 AE eigenvalue nl 21 =       -0.19423807
 ---------------------------------------
 PS eigenvalue nl 20 =       -0.50531853
 PS eigenvalue nl 21 =       -0.19422214
 ---------------------------------------
 Maximum eigenvalue error:   1.59E-05
 
 Derived cutoff energies: C=   6 M=  10 F=  12 E=  16
 
 Checking for ghost states up to   1.47183 Ha
 
 No Ghost States Identified
 
 ***************************************
 
 Atomic calculation performed for N: 1s2 2s2 2p3
 
 Converged in 55 iterations to an ae energy of -1481.742 eV
 
 Identity difference: 2.27E-04
 
   ============================================================                
   | Pseudopotential Report - Date of generation 31-03-2024   |                
   ------------------------------------------------------------                
   | Element: N Ionic charge:  5.00 Level of theory: PBE      |                
   | Atomic Solver: Koelling-Harmon                           |                
   |                                                          |                
   |               Reference Electronic Structure             |                
   |         Orbital         Occupation         Energy        |                
   |            2s              2.000           -0.683        |                
   |            2p              3.000           -0.261        |                
   |                                                          |                
   |                 Pseudopotential Definition               |                
   |        Beta     l      e      Rc     scheme   norm       |                
   |          1      0   -0.683   1.100     qc      0         |                
   |          2      0    0.250   1.100     qc      0         |                
   |          3      1   -0.261   1.100     qc      0         |                
   |          4      1    0.250   1.100     qc      0         |                
   |         loc     2    0.000   1.100     pn      0         |                
   |                                                          |                
   | Augmentation charge Rinner = 0.769                       |                
   | Partial core correction Rc = 0.769                       |                
   ------------------------------------------------------------                
   | "2|1.1|12|16|19|20UU:21UU(qc=7)[]"                       |                
   ------------------------------------------------------------                
   |      Author: Chris J. Pickard, Cambridge University      |                
   ============================================================                
 
 Doing a self consistent calculation for the test configuration
 
 Atomic calculation performed for N: 1s2 2s2 2p3
 
 Converged in 55 iterations to an ae energy of -1481.742 eV
 
 ---------------------------------------
 AE eigenvalue nl 10 =      -14.13820921
 AE eigenvalue nl 20 =       -0.68290611
 AE eigenvalue nl 21 =       -0.26054797
 ---------------------------------------
 PS eigenvalue nl 20 =       -0.68291221
 PS eigenvalue nl 21 =       -0.26051708
 ---------------------------------------
 Maximum eigenvalue error:   3.09E-05
 
 Derived cutoff energies: C=  10 M=  15 F=  18 E=  23
 
 Checking for ghost states up to   1.48495 Ha
 
 No Ghost States Identified
 
 ***************************************
 
 Atomic calculation performed for O: 1s2 2s2 2p4
 
 Converged in 61 iterations to an ae energy of -2040.902 eV
 
 Identity difference: 4.10E-04
 
   ============================================================                
   | Pseudopotential Report - Date of generation 31-03-2024   |                
   ------------------------------------------------------------                
   | Element: O Ionic charge:  6.00 Level of theory: PBE      |                
   | Atomic Solver: Koelling-Harmon                           |                
   |                                                          |                
   |               Reference Electronic Structure             |                
   |         Orbital         Occupation         Energy        |                
   |            2s              2.000           -0.881        |                
   |            2p              4.000           -0.332        |                
   |                                                          |                
   |                 Pseudopotential Definition               |                
   |        Beta     l      e      Rc     scheme   norm       |                
   |          1      0   -0.881   1.100     qc      0         |                
   |          2      0    0.250   1.100     qc      0         |                
   |          3      1   -0.332   1.100     qc      0         |                
   |          4      1    0.250   1.100     qc      0         |                
   |         loc     2    0.000   1.100     pn      0         |                
   |                                                          |                
   | Augmentation charge Rinner = 0.769                       |                
   | Partial core correction Rc = 0.769                       |                
   ------------------------------------------------------------                
   | "2|1.1|14|18|21|20UU:21UU(qc=7)[]"                       |                
   ------------------------------------------------------------                
   |      Author: Chris J. Pickard, Cambridge University      |                
   ============================================================                
 
 Doing a self consistent calculation for the test configuration
 
 Atomic calculation performed for O: 1s2 2s2 2p4
 
 Converged in 61 iterations to an ae energy of -2040.902 eV
 
 ---------------------------------------
 AE eigenvalue nl 10 =      -18.91475256
 AE eigenvalue nl 20 =       -0.88057101
 AE eigenvalue nl 21 =       -0.33186952
 ---------------------------------------
 PS eigenvalue nl 20 =       -0.88059206
 PS eigenvalue nl 21 =       -0.33182157
 ---------------------------------------
 Maximum eigenvalue error:   4.80E-05
 
 Derived cutoff energies: C=  14 M=  17 F=  20 E=  22
 
 Checking for ghost states up to   1.49452 Ha
 
 No Ghost States Identified
 
 ***************************************
 
 Atomic calculation performed for Si: 1s2 2s2 2p6 3s2 3p2
 
 Converged in 54 iterations to an ae energy of -7886.857 eV
 
 Identity difference: 1.35E-04
 
   ============================================================                
   | Pseudopotential Report - Date of generation 31-03-2024   |                
   ------------------------------------------------------------                
   | Element: Si Ionic charge:  4.00 Level of theory: PBE     |                
   | Atomic Solver: Koelling-Harmon                           |                
   |                                                          |                
   |               Reference Electronic Structure             |                
   |         Orbital         Occupation         Energy        |                
   |            3s              2.000           -0.397        |                
   |            3p              2.000           -0.150        |                
   |                                                          |                
   |                 Pseudopotential Definition               |                
   |        Beta     l      e      Rc     scheme   norm       |                
   |          1      0   -0.397   1.797     qc      0         |                
   |          2      0    0.250   1.797     qc      0         |                
   |          3      1   -0.150   1.797     qc      0         |                
   |          4      1    0.250   1.797     qc      0         |                
   |          5      2    0.000   1.797     qc      0         |                
   |          6      2    0.250   1.797     qc      0         |                
   |         loc     3    0.000   1.797     pn      0         |                
   |                                                          |                
   | Augmentation charge Rinner = 1.255                       |                
   | Partial core correction Rc = 1.255                       |                
   ------------------------------------------------------------                
   | "3|1.8|3.6|5|7|30UU:31UU:32UU[]"                         |                
   ------------------------------------------------------------                
   |      Author: Chris J. Pickard, Cambridge University      |                
   ============================================================                
 
 Doing a self consistent calculation for the test configuration
 
 Atomic calculation performed for Si: 1s2 2s2 2p6 3s2 3p2
 
 Converged in 54 iterations to an ae energy of -7886.857 eV
 
 ---------------------------------------
 AE eigenvalue nl 10 =      -65.63192903
 AE eigenvalue nl 20 =       -5.12654326
 AE eigenvalue nl 21 =       -3.51173659
 AE eigenvalue nl 30 =       -0.39736430
 AE eigenvalue nl 31 =       -0.14998156
 ---------------------------------------
 PS eigenvalue nl 30 =       -0.39734922
 PS eigenvalue nl 31 =       -0.14996719
 ---------------------------------------
 Maximum eigenvalue error:   1.51E-05
 
 Derived cutoff energies: C=   1 M=   3 F=   6 E=   6
 
 Checking for ghost states up to   1.41161 Ha
 
 No Ghost States Identified
 
 ***************************************
 
 Pseudo atomic calculation performed for H 1s1
 
 Converged in 13 iterations to a total energy of -12.4790 eV
 
 Pseudo atomic calculation performed for C 2s2 2p2
 
 Converged in 17 iterations to a total energy of -148.5208 eV
 
 Pseudo atomic calculation performed for N 2s2 2p3
 
 Converged in 21 iterations to a total energy of -268.1820 eV
 
 Pseudo atomic calculation performed for O 2s2 2p4
 
 Converged in 23 iterations to a total energy of -432.6536 eV
 
 Pseudo atomic calculation performed for Si 3s2 3p2
 
 Converged in 11 iterations to a total energy of -165.0683 eV
 Calculation parallelised over 48 processes.
 Data is distributed by G-vector(48-way)

 ************************************ Title ************************************
 CASTEP calculation from BIOVIA Materials Studio 2024

 ***************************** General Parameters ******************************
  
 output verbosity                               : normal  (1)
 write checkpoint data to                       : Conf_0027.check
 type of calculation                            : geometry optimization
 stress calculation                             : off
 density difference calculation                 : off
 electron localisation func (ELF) calculation   : off
 Hirshfeld analysis                             : on
 polarisation (Berry phase) analysis            : off
 molecular orbital projected DOS                : off
 deltaSCF calculation                           : off
 unlimited duration calculation
 timing information                             : on
 memory usage estimate                          : on
 write extra output files                       : on
 write final potential to formatted file        : off
 write final density to formatted file          : off
 write BibTeX reference list                    : on
 write OTFG pseudopotential files               : on
 write electrostatic potential file             : on
 write bands file                               : on
 checkpoint writing                             : both castep_bin and check files
  
 output         length unit                     : A
 output           mass unit                     : amu
 output           time unit                     : ps
 output         charge unit                     : e
 output           spin unit                     : hbar/2
 output         energy unit                     : eV
 output          force unit                     : eV/A
 output       velocity unit                     : A/ps
 output       pressure unit                     : GPa
 output     inv_length unit                     : 1/A
 output      frequency unit                     : cm-1
 output force constant unit                     : eV/A**2
 output         volume unit                     : A**3
 output   IR intensity unit                     : (D/A)**2/amu
 output         dipole unit                     : D
 output         efield unit                     : eV/A/e
 output        entropy unit                     : J/mol/K
 output    efield chi2 unit                     : pm/V
  
 wavefunctions paging                           : none
 random number generator seed                   :   13037107
 data distribution                              : optimal for this architecture
 optimization strategy                          : balance speed and memory

 *********************** Exchange-Correlation Parameters ***********************
  
 using functional                               : Perdew Burke Ernzerhof
 relativistic treatment                         : Koelling-Harmon
 DFT+D: Semi-empirical dispersion correction    : on
 SEDC with                                      : G06 correction scheme

 ************************* Pseudopotential Parameters **************************
  
 pseudopotential representation                 : reciprocal space
 <beta|phi> representation                      : reciprocal space
 spin-orbit coupling                            : off

 **************************** Basis Set Parameters *****************************
  
 plane wave basis set cut-off                   :   600.0000   eV
 size of standard grid                          :     1.5000
 size of   fine   gmax                          :    18.8237   1/A
 largest prime factor in FFT                    :          5
 finite basis set correction                    : none

 **************************** Electronic Parameters ****************************
  
 number of  electrons                           :  74.00    
 net charge of system                           : +1.000    
 treating system as non-spin-polarized
 number of bands                                :         37

 ********************* Electronic Minimization Parameters **********************
  
 Method: Treating system as non-metallic,
         and number of  SD  steps               :          1
         and number of  CG  steps               :          4
  
 total energy / atom convergence tol.           : 0.2000E-05   eV
 eigen-energy convergence tolerance             : 0.1000E-05   eV
 max force / atom convergence tol.              : ignored
 convergence tolerance window                   :          3   cycles
 max. number of SCF cycles                      :        100
 periodic dipole correction                     : NONE

 ************************** Density Mixing Parameters **************************
  
 density-mixing scheme                          : Pulay
 max. length of mixing history                  :         20
 charge density mixing amplitude                : 0.5000    
 cut-off energy for mixing                      :  600.0       eV
 charge density mixing g-vector                 :  1.500       1/A

 *********************** Population Analysis Parameters ************************
  
 Population analysis with cutoff                :  3.000       A
 Population analysis output                     : summary and pdos components

 ********************** Geometry Optimization Parameters ***********************
  
 optimization method                            : LBFGS
 max. no. of LBFGS updates                      : unbounded
 preconditioned LBFGS is activated
 preconditioner type                            : EXP
     stabilization constant                     :     0.1000
     parameter A                                :     3.0000
     nearest neighbor distance                  : automatic
     cut-off distance                           : automatic
     parameter mu                               : automatic
 variable cell method                           : fixed basis quality
 max. number of steps                           :        300
 estimated bulk modulus                         :  500.0       GPa
 estimated <frequency>                          :  1668.       cm-1
 geom line minimiser                            : on
 with line minimiser tolerance                  :     0.4000
 total energy convergence tolerance             : 0.2000E-04   eV/atom
        max ionic |force| tolerance             : 0.5000E-01   eV/A
 max ionic |displacement| tolerance             : 0.2000E-02   A
   max |stress component| tolerance             : 0.1000       GPa
 convergence tolerance window                   :          2   steps
 backup results every                           :          5   steps
 write geom trajectory file                     : on

 *******************************************************************************
  
 
                           -------------------------------
                                      Unit Cell
                           -------------------------------
        Real Lattice(A)                      Reciprocal Lattice(1/A)
    13.4840002    -0.0000006    -0.0000006        0.465973392   0.000000000   0.000000000
     0.0000000    20.4006996    -0.0000009        0.000000013   0.307988717   0.000000000
     0.0000000     0.0000000    45.0000000        0.000000006   0.000000006   0.139626340
 
                       Lattice parameters(A)       Cell Angles
                    a =     13.484000          alpha =   90.000003
                    b =     20.400700          beta  =   90.000003
                    c =     45.000000          gamma =   90.000003
 
                       Current cell volume =         12378.736702       A**3
                                   density =             0.015698   AMU/A**3
                                           =             0.026068     g/cm^3
 
                           -------------------------------
                                     Cell Contents
                           -------------------------------
                         Total number of ions in cell =   32
                      Total number of species in cell =    5
                        Max number of any one species =   20
 
            xxxxxxxxxxxxxxxxxxxxxxxxxxxxxxxxxxxxxxxxxxxxxxxxxxxxxxxxxxxx
            x  Element    Atom        Fractional coordinates of atoms  x
            x            Number           u          v          w      x
            x----------------------------------------------------------x
            x  H            1         0.579745   0.539915   0.516747   x 
            x  H            2         0.555366   0.607096   0.541343   x 
            x  H            3         0.446340   0.473721   0.542866   x 
            x  H            4         0.426116   0.539981   0.567734   x 
            x  H            5         0.405602   0.665985   0.482188   x 
            x  H            6         0.525314   0.668567   0.498529   x 
            x  H            7         0.552544   0.654153   0.448360   x 
            x  H            8         0.452703   0.600659   0.442319   x 
            x  H            9         0.645670   0.556732   0.473513   x 
            x  H           10         0.625095   0.553693   0.435010   x 
            x  H           11         0.402765   0.430027   0.487124   x 
            x  H           12         0.650505   0.394362   0.455350   x 
            x  H           13         0.457004   0.401342   0.424515   x 
            x  H           14         0.408274   0.547500   0.499719   x 
            x  H           15         0.384438   0.607443   0.523065   x 
            x  H           16         0.620824   0.462717   0.561015   x 
            x  H           17         0.602976   0.529416   0.585669   x 
            x  H           18         0.583377   0.422168   0.612147   x 
            x  H           19         0.486212   0.399364   0.587480   x 
            x  H           20         0.469615   0.466306   0.612446   x 
            x  C            1         0.523126   0.563217   0.530795   x 
            x  C            2         0.482858   0.515483   0.553981   x 
            x  C            3         0.471544   0.635957   0.487422   x 
            x  C            4         0.514385   0.610872   0.457831   x 
            x  C            5         0.586681   0.551733   0.456718   x 
            x  C            6         0.564363   0.488579   0.574421   x 
            x  C            7         0.523674   0.441550   0.597893   x 
            x  N            1         0.437563   0.586920   0.510258   x 
            x  O            1         0.603995   0.411246   0.469209   x 
            x  O            2         0.475361   0.445639   0.427792   x 
            x  O            3         0.437486   0.470176   0.484163   x 
            x  Si           1         0.525696   0.467623   0.459068   x 
            xxxxxxxxxxxxxxxxxxxxxxxxxxxxxxxxxxxxxxxxxxxxxxxxxxxxxxxxxxxx
 
 
                         No user defined ionic velocities
 
                           -------------------------------
                                   Details of Species
                           -------------------------------
 
                               Mass of species in AMU
                                    H    1.0080000
                                    C   12.0109997
                                    N   14.0070000
                                    O   15.9989996
                                    Si   28.0849991
 
                          Electric Quadrupole Moment (Barn)
                                    H    0.0028600 Isotope  2
                                    C    0.0332700 Isotope 11
                                    N    0.0204400 Isotope 14
                                    O   -0.0255800 Isotope 17
                                    Si    1.0000000 No Isotope Defined
 
                          Files used for pseudopotentials:
                                    H 1|0.6|9|10|15|10UU(qc=8)[]
                                    C 2|1.4|11|12|14.7|20UU:21UU(qc=7)[]
                                    N 2|1.1|12|16|19|20UU:21UU(qc=7)[]
                                    O 2|1.1|14|18|21|20UU:21UU(qc=7)[]
                                    Si 3|1.8|3.6|5|7|30UU:31UU:32UU[]
 
                           -------------------------------
                              k-Points For BZ Sampling
                           -------------------------------
                       MP grid size for SCF calculation is  1  1  1
                            with an offset of   0.000  0.000  0.000
                       Number of kpoints used =             1
 
                           -------------------------------
                               Symmetry and Constraints
                           -------------------------------
 
                      Maximum deviation from symmetry =  0.00000         ANG
 
                      Number of symmetry operations   =           1
                      Number of nonlinear constraints =           3
         There are no ionic constraints specified or generated for this cell
                      Point group of crystal =     1: C1, 1, 1
                      Space group of crystal =     1: P1, P 1
 
             Set iprint > 1 for details on symmetry rotations/translations
 
                         Centre of mass is NOT constrained
 
                         Number of cell constraints= 6
                         Cell constraints are:  0 0 0 0 0 0
 
                         External pressure/stress (GPa)
                          0.00000   0.00000   0.00000
                                    0.00000   0.00000
                                              0.00000
 
                                --------------------
                                  DFT-D parameters
                                --------------------
 
                          Dispersion-correction scheme : G06       
                        Parameter s6 :   0.750000 (default)
                        Parameter d  :  20.000000 (default)
 
        xxxxxxxxxxxxxxxxxxxxxxxxxxxxxxxxxxxxxxxxxxxxxxxxxxxxxxxxxxxxxxxxxxxx
        x              Atomic DFT-D parameters                             x
        x  Species      C6            R0                                   x
        x               eV A^6        Ang                                  x
        x------------------------------------------------------------------x
        x  H             1.4510       1.0010   (default)                   x
        x  C            18.1375       1.4520   (default)                   x
        x  N            12.7481       1.3970   (default)                   x
        x  O             7.2550       1.3420   (default)                   x
        x  Si           95.6622       1.7160   (default)                   x
        xxxxxxxxxxxxxxxxxxxxxxxxxxxxxxxxxxxxxxxxxxxxxxxxxxxxxxxxxxxxxxxxxxxx
 
 
+---------------- MEMORY AND SCRATCH DISK ESTIMATES PER PROCESS --------------+
|                                                     Memory          Disk    |
| Baseline code, static data and system overhead     6530.0 MB         0.0 MB |
| BLAS internal memory storage                          0.0 MB         0.0 MB |
| Model and support data                              540.6 MB         0.0 MB |
| Electronic energy minimisation requirements          31.8 MB         0.0 MB |
| Force calculation requirements                        6.8 MB         0.0 MB |
|                                               ----------------------------- |
| Approx. total storage required per process         7102.3 MB         0.0 MB |
|                                                                             |
| Requirements will fluctuate during execution and may exceed these estimates |
+-----------------------------------------------------------------------------+
Calculating approximate eigenstates for fixed initial Hamiltonian
Cut-off for approx. calculation is  119.774 eV
Improving approx. states at cut-off of  300.000 eV
Resetting cut-off to  600.000 eV
Calculating total energy with cut-off of  600.000 eV.
------------------------------------------------------------------------ <-- SCF
SCF loop      Energy                           Energy gain       Timer   <-- SCF
                                               per atom          (sec)   <-- SCF
------------------------------------------------------------------------ <-- SCF
Initial  -2.97151274E+003                                         31.26  <-- SCF
      1  -3.20327223E+003                    7.24248380E+000      32.16  <-- SCF
      2  -3.20408536E+003                    2.54104351E-002      33.06  <-- SCF
      3  -3.19282854E+003                   -3.51775538E-001      34.11  <-- SCF
      4  -3.19168041E+003                   -3.58791922E-002      35.29  <-- SCF
      5  -3.19110406E+003                   -1.80107750E-002      36.32  <-- SCF
      6  -3.19103101E+003                   -2.28293820E-003      37.65  <-- SCF
      7  -3.19097940E+003                   -1.61290419E-003      38.69  <-- SCF
      8  -3.19097498E+003                   -1.38110760E-004      39.85  <-- SCF
      9  -3.19096227E+003                   -3.96963387E-004      40.90  <-- SCF
     10  -3.19094551E+003                   -5.23981499E-004      41.96  <-- SCF
     11  -3.19092679E+003                   -5.85028549E-004      43.03  <-- SCF
     12  -3.19085942E+003                   -2.10513743E-003      44.06  <-- SCF
     13  -3.19079843E+003                   -1.90598495E-003      45.16  <-- SCF
     14  -3.19071696E+003                   -2.54610276E-003      46.17  <-- SCF
     15  -3.19065595E+003                   -1.90650367E-003      47.18  <-- SCF
     16  -3.19061228E+003                   -1.36467466E-003      48.18  <-- SCF
     17  -3.19057406E+003                   -1.19440995E-003      49.19  <-- SCF
     18  -3.19054110E+003                   -1.02987831E-003      50.20  <-- SCF
     19  -3.19051828E+003                   -7.13169070E-004      51.18  <-- SCF
     20  -3.19049461E+003                   -7.39520842E-004      52.12  <-- SCF
     21  -3.19046346E+003                   -9.73487518E-004      53.13  <-- SCF
     22  -3.19045011E+003                   -4.17284383E-004      54.15  <-- SCF
     23  -3.19044818E+003                   -6.03108141E-005      55.13  <-- SCF
     24  -3.19044923E+003                    3.26708438E-005      56.09  <-- SCF
     25  -3.19045359E+003                    1.36368797E-004      56.96  <-- SCF
     26  -3.19045722E+003                    1.13485055E-004      57.77  <-- SCF
     27  -3.19046169E+003                    1.39646790E-004      58.68  <-- SCF
     28  -3.19046520E+003                    1.09582755E-004      59.52  <-- SCF
     29  -3.19046710E+003                    5.93577372E-005      60.34  <-- SCF
     30  -3.19047015E+003                    9.53217443E-005      61.15  <-- SCF
     31  -3.19047168E+003                    4.78154288E-005      61.96  <-- SCF
     32  -3.19047385E+003                    6.78134749E-005      62.76  <-- SCF
     33  -3.19047510E+003                    3.92408267E-005      63.56  <-- SCF
     34  -3.19047570E+003                    1.85554815E-005      64.37  <-- SCF
     35  -3.19047668E+003                    3.09203063E-005      65.18  <-- SCF
     36  -3.19047719E+003                    1.58682048E-005      65.99  <-- SCF
     37  -3.19047769E+003                    1.55895255E-005      66.80  <-- SCF
     38  -3.19047813E+003                    1.35656910E-005      67.61  <-- SCF
     39  -3.19047856E+003                    1.36221829E-005      68.42  <-- SCF
     40  -3.19047879E+003                    7.29158458E-006      69.23  <-- SCF
     41  -3.19047899E+003                    6.13234077E-006      70.04  <-- SCF
     42  -3.19047912E+003                    4.04261286E-006      70.86  <-- SCF
     43  -3.19047933E+003                    6.51852651E-006      71.66  <-- SCF
     44  -3.19047941E+003                    2.66314463E-006      72.47  <-- SCF
     45  -3.19047950E+003                    2.55519902E-006      73.28  <-- SCF
     46  -3.19047952E+003                    7.55993518E-007      74.09  <-- SCF
     47  -3.19047955E+003                    1.02436113E-006      74.93  <-- SCF
------------------------------------------------------------------------ <-- SCF
 
Final energy =  -3190.479552714     eV
(energy not corrected for finite basis set)
 
(SEDC) Total Energy Correction : -0.858944E+00 eV

Dispersion corrected final energy* =  -3191.338496954     eV

Writing analysis data to Conf_0027.castep_bin

Writing model to Conf_0027.check

WARNING - nonlinear constraints cannot be used with LBFGS algorithm
        - consider setting geom_method=DELOCALIZED
 
        => Turning nonlinear constraints OFF
 
+---------------- MEMORY AND SCRATCH DISK ESTIMATES PER PROCESS --------------+
|                                                     Memory          Disk    |
| Model and support data                              550.1 MB         0.0 MB |
| Electronic energy minimisation requirements          31.8 MB         0.0 MB |
| Geometry minimisation requirements                   34.8 MB         0.0 MB |
|                                               ----------------------------- |
| Approx. total storage required per process          616.7 MB         0.0 MB |
|                                                                             |
| Requirements will fluctuate during execution and may exceed these estimates |
+-----------------------------------------------------------------------------+
 
 
 ************************************** Forces **************************************
 *                                                                                  *
 *                           Cartesian components (eV/A)                            *
 * -------------------------------------------------------------------------------- *
 *                         x                    y                    z              *
 *                                                                                  *
 * H               1     -0.23424              0.10635             -0.07721         *
 * H               2     -0.15397             -0.03876             -0.17342         *
 * H               3      0.04592              0.13210             -0.03323         *
 * H               4      0.00231              0.03438             -0.03367         *
 * H               5      0.17460             -0.03178              0.00641         *
 * H               6     -0.12030             -0.22301              0.05702         *
 * H               7     -0.16182             -0.13677              0.09594         *
 * H               8      0.03389              0.05743              0.16281         *
 * H               9     -0.01033             -0.11588              0.00430         *
 * H              10     -0.13397             -0.08636              0.13205         *
 * H              11     -0.54086             -0.77242              0.19053         *
 * H              12      0.63415             -0.36933             -0.65848         *
 * H              13     -0.23364             -0.94849             -0.23282         *
 * H              14     -0.20985             -1.18125             -0.34832         *
 * H              15     -0.37852              0.27160              0.45698         *
 * H              16     -0.06320              0.08283             -0.03817         *
 * H              17     -0.07201              0.00970             -0.09303         *
 * H              18     -0.06042              0.07524             -0.12300         *
 * H              19      0.03457              0.03509              0.01708         *
 * H              20      0.05637             -0.00994             -0.06772         *
 * C               1     -0.68553             -0.19557              0.07056         *
 * C               2      0.01157             -0.06268             -0.00219         *
 * C               3      0.01124              0.71860             -0.22169         *
 * C               4     -0.14805             -0.11953             -0.41085         *
 * C               5     -0.55088             -0.10786              0.19094         *
 * C               6      0.25636              0.02531              0.05057         *
 * C               7     -0.09997             -0.06039              0.08012         *
 * N               1      1.92824              0.61704              0.47378         *
 * O               1     -0.23147              0.02120              1.17169         *
 * O               2      0.13089              1.29715             -0.45248         *
 * O               3     -0.07009              0.78418              0.63576         *
 * Si              1      0.83901              0.19183             -0.83026         *
 *                                                                                  *
 ************************************************************************************
 EXP precond LBFGS => estimated nearest neighbor distance :  1.626       A
 EXP precond LBFGS => estimated cutoff distance :  3.251       A
 doing test perturbation to get energy scale for EXP preconditioner
 
                           -------------------------------
                                     Cell Contents
                           -------------------------------
 
            xxxxxxxxxxxxxxxxxxxxxxxxxxxxxxxxxxxxxxxxxxxxxxxxxxxxxxxxxxxxxxxxx
            x  Element         Atom        Fractional coordinates of atoms  x
            x                 Number           u          v          w      x
            x---------------------------------------------------------------x
            x  H                 1         0.580734   0.540650   0.516885   x
            x  H                 2         0.556414   0.607733   0.541436   x
            x  H                 3         0.447539   0.474508   0.542956   x
            x  H                 4         0.427321   0.540715   0.567777   x
            x  H                 5         0.406806   0.666506   0.482385   x
            x  H                 6         0.526423   0.669082   0.498699   x
            x  H                 7         0.553599   0.654700   0.448608   x
            x  H                 8         0.453899   0.601308   0.442575   x
            x  H                 9         0.646460   0.557446   0.473723   x
            x  H                10         0.625953   0.554411   0.435276   x
            x  H                11         0.403968   0.430824   0.487312   x
            x  H                12         0.651278   0.395152   0.455588   x
            x  H                13         0.458196   0.402134   0.424794   x
            x  H                14         0.409479   0.548226   0.499887   x
            x  H                15         0.385634   0.608080   0.523192   x
            x  H                16         0.621696   0.463508   0.561072   x
            x  H                17         0.603902   0.530162   0.585679   x
            x  H                18         0.584357   0.422964   0.612105   x
            x  H                19         0.487378   0.400155   0.587486   x
            x  H                20         0.470798   0.467096   0.612403   x
            x  C                 1         0.524238   0.563923   0.530908   x
            x  C                 2         0.484028   0.516242   0.554050   x
            x  C                 3         0.472725   0.636540   0.487611   x
            x  C                 4         0.515512   0.611503   0.458065   x
            x  C                 5         0.587652   0.552454   0.456954   x
            x  C                 6         0.565390   0.489358   0.574452   x
            x  C                 7         0.524786   0.442347   0.597879   x
            x  N                 1         0.438765   0.587591   0.510408   x
            x  O                 1         0.604917   0.412041   0.469426   x
            x  O                 2         0.476539   0.446435   0.428067   x
            x  O                 3         0.438689   0.470964   0.484357   x
            x  Si                1         0.526804   0.468412   0.459300   x
            xxxxxxxxxxxxxxxxxxxxxxxxxxxxxxxxxxxxxxxxxxxxxxxxxxxxxxxxxxxxxxxxx
 
 
------------------------------------------------------------------------ <-- SCF
SCF loop      Energy                           Energy gain       Timer   <-- SCF
                                               per atom          (sec)   <-- SCF
------------------------------------------------------------------------ <-- SCF
Initial  -3.19269062E+003                                         76.96  <-- SCF
      1  -3.19045886E+003                   -6.97425097E-002      77.78  <-- SCF
      2  -3.19048108E+003                    6.94430700E-004      78.92  <-- SCF
      3  -3.19045533E+003                   -8.04589758E-004      79.98  <-- SCF
      4  -3.19047240E+003                    5.33367219E-004      81.00  <-- SCF
      5  -3.19047279E+003                    1.21152581E-005      81.81  <-- SCF
      6  -3.19047302E+003                    7.34603694E-006      82.59  <-- SCF
      7  -3.19047310E+003                    2.27793356E-006      83.37  <-- SCF
      8  -3.19047316E+003                    2.11123440E-006      84.15  <-- SCF
      9  -3.19047319E+003                    8.12549171E-007      84.93  <-- SCF
     10  -3.19047323E+003                    1.38501573E-006      85.71  <-- SCF
     11  -3.19047324E+003                    3.46932563E-007      86.49  <-- SCF
------------------------------------------------------------------------ <-- SCF
 
Final energy =  -3190.473244904     eV
(energy not corrected for finite basis set)
 
(SEDC) Total Energy Correction : -0.860782E+00 eV

Dispersion corrected final energy* =  -3191.334027121     eV
 
 ************************************** Forces **************************************
 *                                                                                  *
 *                           Cartesian components (eV/A)                            *
 * -------------------------------------------------------------------------------- *
 *                         x                    y                    z              *
 *                                                                                  *
 * H               1     -0.15766              0.08530             -0.10954         *
 * H               2     -0.10542              0.01707             -0.14740         *
 * H               3      0.02829              0.10734             -0.04845         *
 * H               4     -0.03699              0.05173             -0.00873         *
 * H               5      0.16143             -0.00849             -0.00336         *
 * H               6     -0.09257             -0.18105              0.08590         *
 * H               7     -0.13594             -0.08469              0.08078         *
 * H               8     -0.00890              0.05086              0.13364         *
 * H               9      0.04539             -0.11182              0.04572         *
 * H              10     -0.10211             -0.08912              0.08462         *
 * H              11     -0.56289             -0.78421              0.20217         *
 * H              12      0.70540             -0.41524             -0.72229         *
 * H              13     -0.22372             -0.94190             -0.24584         *
 * H              14     -0.22469             -1.21623             -0.37840         *
 * H              15     -0.39835              0.31546              0.48130         *
 * H              16     -0.01883              0.06011             -0.07543         *
 * H              17     -0.03981              0.03775             -0.06620         *
 * H              18     -0.02307              0.05554             -0.08280         *
 * H              19      0.01384              0.05623              0.00225         *
 * H              20      0.03397             -0.01126             -0.03383         *
 * C               1     -0.71943             -0.19586              0.06684         *
 * C               2     -0.01081             -0.07238             -0.00297         *
 * C               3     -0.01602              0.72534             -0.22903         *
 * C               4     -0.17253             -0.13326             -0.41129         *
 * C               5     -0.57728             -0.13340              0.18525         *
 * C               6      0.24585              0.02438              0.06289         *
 * C               7     -0.12686             -0.06837              0.07490         *
 * N               1      1.95278              0.59742              0.48795         *
 * O               1     -0.24765              0.01455              1.25294         *
 * O               2      0.08981              1.25042             -0.52907         *
 * O               3     -0.12482              0.76741              0.67839         *
 * Si              1      0.84959              0.23035             -0.83093         *
 *                                                                                  *
 ************************************************************************************
 EXP precond LBFGS => estimated parameter mu :  1.645       eV/A**2
 LBFGS: finished iteration     0 with enthalpy= -3.19133850E+003 eV
  
 +-----------+-----------------+-----------------+------------+-----+ <-- LBFGS
 | Parameter |      value      |    tolerance    |    units   | OK? | <-- LBFGS
 +-----------+-----------------+-----------------+------------+-----+ <-- LBFGS
 |  dE/ion   |   0.000000E+000 |   2.000000E-005 |         eV | No  | <-- LBFGS
 |  |F|max   |   2.099607E+000 |   5.000000E-002 |       eV/A | No  | <-- LBFGS
 |  |dR|max  |   7.995143E-015 |   2.000000E-003 |          A | No  | <-- LBFGS
 +-----------+-----------------+-----------------+------------+-----+ <-- LBFGS
  

================================================================================
 Starting LBFGS iteration          1 ...
================================================================================
  
 +------------+-------------+-------------+-----------------+ <-- min LBFGS
 |    Step    |   lambda    |   F.delta'  |    enthalpy     | <-- min LBFGS
 +------------+-------------+-------------+-----------------+ <-- min LBFGS
 |  previous  |    0.000000 |    1.766174 |    -3191.338497 | <-- min LBFGS
 +------------+-------------+-------------+-----------------+ <-- min LBFGS
  

--------------------------------------------------------------------------------
 LBFGS: starting iteration         1 with trial guess (lambda=  0.980711)
--------------------------------------------------------------------------------
 
                           -------------------------------
                                     Cell Contents
                           -------------------------------
 
            xxxxxxxxxxxxxxxxxxxxxxxxxxxxxxxxxxxxxxxxxxxxxxxxxxxxxxxxxxxxxxxxx
            x  Element         Atom        Fractional coordinates of atoms  x
            x                 Number           u          v          w      x
            x---------------------------------------------------------------x
            x  H                 1         0.575612   0.540500   0.516967   x
            x  H                 2         0.551685   0.607295   0.541383   x
            x  H                 3         0.445179   0.475020   0.543037   x
            x  H                 4         0.424718   0.541039   0.567838   x
            x  H                 5         0.407350   0.666804   0.482700   x
            x  H                 6         0.524446   0.668456   0.499086   x
            x  H                 7         0.548615   0.652808   0.448725   x
            x  H                 8         0.450666   0.600315   0.442768   x
            x  H                 9         0.641687   0.554836   0.473820   x
            x  H                10         0.620028   0.551853   0.435537   x
            x  H                11         0.397682   0.425636   0.488963   x
            x  H                12         0.668036   0.388951   0.454372   x
            x  H                13         0.460151   0.398973   0.420316   x
            x  H                14         0.409494   0.543756   0.500235   x
            x  H                15         0.385153   0.609074   0.524901   x
            x  H                16         0.618927   0.464464   0.560787   x
            x  H                17         0.601019   0.530793   0.585312   x
            x  H                18         0.581211   0.424015   0.611553   x
            x  H                19         0.484796   0.400980   0.587236   x
            x  H                20         0.468356   0.467689   0.612008   x
            x  C                 1         0.518651   0.563197   0.531253   x
            x  C                 2         0.481304   0.516280   0.554125   x
            x  C                 3         0.471945   0.638097   0.487713   x
            x  C                 4         0.511362   0.609977   0.457655   x
            x  C                 5         0.581220   0.550111   0.457150   x
            x  C                 6         0.563632   0.490009   0.574297   x
            x  C                 7         0.521738   0.442930   0.597643   x
            x  N                 1         0.444958   0.588275   0.511641   x
            x  O                 1         0.615402   0.407863   0.470988   x
            x  O                 2         0.480666   0.450981   0.423640   x
            x  O                 3         0.436214   0.471088   0.486187   x
            x  Si                1         0.535312   0.468075   0.456851   x
            xxxxxxxxxxxxxxxxxxxxxxxxxxxxxxxxxxxxxxxxxxxxxxxxxxxxxxxxxxxxxxxxx
 
 
------------------------------------------------------------------------ <-- SCF
SCF loop      Energy                           Energy gain       Timer   <-- SCF
                                               per atom          (sec)   <-- SCF
------------------------------------------------------------------------ <-- SCF
Initial  -3.19611834E+003                                         87.85  <-- SCF
      1  -3.18691723E+003                   -2.87534678E-001      88.66  <-- SCF
      2  -3.18935982E+003                    7.63309939E-002      89.98  <-- SCF
      3  -3.18872163E+003                   -1.99434484E-002      91.16  <-- SCF
      4  -3.18880213E+003                    2.51559360E-003      92.25  <-- SCF
      5  -3.18884137E+003                    1.22617361E-003      93.28  <-- SCF
      6  -3.18884163E+003                    8.07779683E-006      94.45  <-- SCF
      7  -3.18884062E+003                   -3.15427220E-005      95.43  <-- SCF
      8  -3.18883999E+003                   -1.94866032E-005      96.33  <-- SCF
      9  -3.18883924E+003                   -2.36392609E-005      97.26  <-- SCF
     10  -3.18883862E+003                   -1.93278832E-005      98.21  <-- SCF
     11  -3.18883875E+003                    4.12875997E-006      98.99  <-- SCF
     12  -3.18883935E+003                    1.87553766E-005      99.88  <-- SCF
     13  -3.18883961E+003                    7.99889492E-006     100.66  <-- SCF
     14  -3.18884026E+003                    2.04572533E-005     101.48  <-- SCF
     15  -3.18884060E+003                    1.05038960E-005     102.27  <-- SCF
     16  -3.18884092E+003                    9.98029854E-006     103.05  <-- SCF
     17  -3.18884132E+003                    1.24343477E-005     103.84  <-- SCF
     18  -3.18884151E+003                    6.03813764E-006     104.67  <-- SCF
     19  -3.18884182E+003                    9.62371364E-006     105.48  <-- SCF
     20  -3.18884193E+003                    3.58507261E-006     106.27  <-- SCF
     21  -3.18884212E+003                    5.98440434E-006     107.07  <-- SCF
     22  -3.18884209E+003                   -9.60620791E-007     107.87  <-- SCF
     23  -3.18884220E+003                    3.24479288E-006     108.68  <-- SCF
     24  -3.18884226E+003                    2.06351647E-006     109.48  <-- SCF
     25  -3.18884229E+003                    7.12064201E-007     110.28  <-- SCF
     26  -3.18884244E+003                    4.73684177E-006     111.09  <-- SCF
     27  -3.18884244E+003                    1.31330683E-007     111.89  <-- SCF
     28  -3.18884247E+003                    8.04052277E-007     112.70  <-- SCF
------------------------------------------------------------------------ <-- SCF
 
Final energy =  -3188.842466533     eV
(energy not corrected for finite basis set)
 
(SEDC) Total Energy Correction : -0.851514E+00 eV

Dispersion corrected final energy* =  -3189.693980981     eV
 
 ************************************** Forces **************************************
 *                                                                                  *
 *                           Cartesian components (eV/A)                            *
 * -------------------------------------------------------------------------------- *
 *                         x                    y                    z              *
 *                                                                                  *
 * H               1     -0.03727             -0.02776              0.26635         *
 * H               2      0.26818             -0.20910              0.23988         *
 * H               3     -0.13706             -0.17547             -0.10715         *
 * H               4     -0.04391             -0.03843              0.04838         *
 * H               5     -0.71792              0.35462              0.02211         *
 * H               6      0.81975              0.66971              0.08055         *
 * H               7      0.38987              0.20601             -0.40414         *
 * H               8     -0.74569             -0.08160             -0.27708         *
 * H               9     -0.24573             -0.07439             -0.20686         *
 * H              10      0.13852              0.12945             -0.02284         *
 * H              11      1.70159              3.00132             -0.44685         *
 * H              12     -2.65071              1.44900              2.67734         *
 * H              13      1.08676              4.00668              0.61395         *
 * H              14      1.15021              1.17910              0.78898         *
 * H              15      1.47536             -0.67214             -1.02939         *
 * H              16      0.19380             -0.05656             -0.17674         *
 * H              17      0.14551              0.24490              0.13403         *
 * H              18      0.22928             -0.13455              0.23797         *
 * H              19     -0.06397             -0.06981             -0.09260         *
 * H              20     -0.20323              0.09752              0.15484         *
 * C               1      2.38565              0.43898              0.27227         *
 * C               2     -0.32900             -0.14404              0.42025         *
 * C               3      0.57858             -1.59706             -0.00673         *
 * C               4      0.00668              0.05089              1.07177         *
 * C               5      1.23107              1.58378              0.07630         *
 * C               6     -0.40888             -0.16230              0.05084         *
 * C               7      0.13047              0.13633             -0.25722         *
 * N               1     -5.13986             -0.44037             -1.54748         *
 * O               1      1.06557              0.34504             -3.61450         *
 * O               2     -0.11605             -3.51810              0.88163         *
 * O               3      0.05144             -3.10757             -1.42530         *
 * Si              1     -2.20903             -3.38407              1.57744         *
 *                                                                                  *
 ************************************************************************************
  
 +------------+-------------+-------------+-----------------+ <-- min LBFGS
 |    Step    |   lambda    |   F.delta'  |    enthalpy     | <-- min LBFGS
 +------------+-------------+-------------+-----------------+ <-- min LBFGS
 |  previous  |    0.000000 |    1.766174 |    -3191.338497 | <-- min LBFGS
 | trial step |    0.980711 |   -4.712798 |    -3189.693981 | <-- min LBFGS
 +------------+-------------+-------------+-----------------+ <-- min LBFGS
  

--------------------------------------------------------------------------------
 LBFGS: improving iteration         1 with line minimization (lambda=  0.267343)
--------------------------------------------------------------------------------
 
                           -------------------------------
                                     Cell Contents
                           -------------------------------
 
            xxxxxxxxxxxxxxxxxxxxxxxxxxxxxxxxxxxxxxxxxxxxxxxxxxxxxxxxxxxxxxxxx
            x  Element         Atom        Fractional coordinates of atoms  x
            x                 Number           u          v          w      x
            x---------------------------------------------------------------x
            x  H                 1         0.578618   0.540075   0.516807   x
            x  H                 2         0.554363   0.607150   0.541354   x
            x  H                 3         0.446024   0.474075   0.542912   x
            x  H                 4         0.425735   0.540269   0.567762   x
            x  H                 5         0.406078   0.666208   0.482328   x
            x  H                 6         0.525078   0.668537   0.498681   x
            x  H                 7         0.551473   0.653787   0.448459   x
            x  H                 8         0.452148   0.600566   0.442441   x
            x  H                 9         0.644584   0.556215   0.473596   x
            x  H                10         0.623714   0.553191   0.435154   x
            x  H                11         0.401379   0.428830   0.487625   x
            x  H                12         0.655284   0.392887   0.455083   x
            x  H                13         0.457862   0.400696   0.423370   x
            x  H                14         0.408607   0.546480   0.499860   x
            x  H                15         0.384633   0.607888   0.523565   x
            x  H                16         0.620307   0.463193   0.560953   x
            x  H                17         0.602443   0.529792   0.585572   x
            x  H                18         0.582787   0.422671   0.611985   x
            x  H                19         0.485826   0.399804   0.587414   x
            x  H                20         0.469272   0.466683   0.612326   x
            x  C                 1         0.521906   0.563212   0.530920   x
            x  C                 2         0.482434   0.515700   0.554020   x
            x  C                 3         0.471653   0.636540   0.487502   x
            x  C                 4         0.513561   0.610628   0.457783   x
            x  C                 5         0.585193   0.551291   0.456836   x
            x  C                 6         0.564164   0.488969   0.574387   x
            x  C                 7         0.523146   0.441926   0.597825   x
            x  N                 1         0.439579   0.587290   0.510635   x
            x  O                 1         0.607104   0.410324   0.469694   x
            x  O                 2         0.476807   0.447095   0.426660   x
            x  O                 3         0.437139   0.470424   0.484715   x
            x  Si                1         0.528317   0.467746   0.458463   x
            xxxxxxxxxxxxxxxxxxxxxxxxxxxxxxxxxxxxxxxxxxxxxxxxxxxxxxxxxxxxxxxxx
 
 
------------------------------------------------------------------------ <-- SCF
SCF loop      Energy                           Energy gain       Timer   <-- SCF
                                               per atom          (sec)   <-- SCF
------------------------------------------------------------------------ <-- SCF
Initial  -3.20993245E+003                                        114.06  <-- SCF
      1  -3.18989945E+003                   -6.26031301E-001     114.91  <-- SCF
      2  -3.19083917E+003                    2.93659970E-002     116.02  <-- SCF
      3  -3.19050360E+003                   -1.04865336E-002     117.05  <-- SCF
      4  -3.19059244E+003                    2.77640815E-003     118.11  <-- SCF
      5  -3.19062283E+003                    9.49696506E-004     119.17  <-- SCF
      6  -3.19062299E+003                    4.90005374E-006     120.28  <-- SCF
      7  -3.19062250E+003                   -1.53243548E-005     121.23  <-- SCF
      8  -3.19062212E+003                   -1.18668312E-005     122.07  <-- SCF
      9  -3.19062175E+003                   -1.14681176E-005     123.00  <-- SCF
     10  -3.19062192E+003                    5.20013138E-006     123.78  <-- SCF
     11  -3.19062227E+003                    1.08742693E-005     124.57  <-- SCF
     12  -3.19062277E+003                    1.58925895E-005     125.35  <-- SCF
     13  -3.19062304E+003                    8.31219185E-006     126.14  <-- SCF
     14  -3.19062340E+003                    1.11505687E-005     126.92  <-- SCF
     15  -3.19062357E+003                    5.46325789E-006     127.71  <-- SCF
     16  -3.19062388E+003                    9.49948750E-006     128.50  <-- SCF
     17  -3.19062411E+003                    7.40448959E-006     129.29  <-- SCF
     18  -3.19062435E+003                    7.55587046E-006     130.08  <-- SCF
     19  -3.19062458E+003                    6.97912128E-006     130.87  <-- SCF
     20  -3.19062481E+003                    7.39951565E-006     131.67  <-- SCF
     21  -3.19062502E+003                    6.35036931E-006     132.47  <-- SCF
     22  -3.19062510E+003                    2.49624082E-006     133.27  <-- SCF
     23  -3.19062520E+003                    3.16800108E-006     134.07  <-- SCF
     24  -3.19062524E+003                    1.42020580E-006     134.91  <-- SCF
     25  -3.19062529E+003                    1.52581556E-006     135.72  <-- SCF
     26  -3.19062530E+003                    1.17443328E-007     136.52  <-- SCF
------------------------------------------------------------------------ <-- SCF
 
Final energy =  -3190.625296995     eV
(energy not corrected for finite basis set)
 
(SEDC) Total Energy Correction : -0.856307E+00 eV

Dispersion corrected final energy* =  -3191.481603536     eV
 
 ************************************** Forces **************************************
 *                                                                                  *
 *                           Cartesian components (eV/A)                            *
 * -------------------------------------------------------------------------------- *
 *                         x                    y                    z              *
 *                                                                                  *
 * H               1     -0.20111              0.08288              0.01680         *
 * H               2     -0.06465             -0.08482             -0.07742         *
 * H               3     -0.00294              0.05258             -0.05176         *
 * H               4     -0.00961              0.01565             -0.01085         *
 * H               5     -0.05620              0.06623              0.01288         *
 * H               6      0.11907              0.00967              0.05504         *
 * H               7     -0.01602             -0.05007             -0.04026         *
 * H               8     -0.16527              0.02417              0.05260         *
 * H               9     -0.06593             -0.10304             -0.05650         *
 * H              10     -0.07127             -0.02474              0.09802         *
 * H              11      0.29885              0.57406             -0.06369         *
 * H              12     -0.64029              0.36052              0.61936         *
 * H              13      0.31060              1.01256              0.10835         *
 * H              14      0.30127             -0.20739              0.15273         *
 * H              15      0.22144             -0.05078             -0.04716         *
 * H              16      0.00670              0.03738             -0.07514         *
 * H              17     -0.01496              0.07518             -0.03276         *
 * H              18      0.01621              0.01537             -0.03015         *
 * H              19      0.00683              0.00389             -0.01235         *
 * H              20     -0.01526              0.02426             -0.00959         *
 * C               1     -0.00827              0.04019              0.00491         *
 * C               2     -0.07838             -0.07410              0.10194         *
 * C               3      0.15195              0.10363             -0.16263         *
 * C               4     -0.12042             -0.06578             -0.01200         *
 * C               5     -0.06528              0.26375              0.12680         *
 * C               6      0.07438             -0.02235              0.04990         *
 * C               7     -0.03532             -0.00342             -0.01118         *
 * N               1     -0.07939              0.00342              0.02341         *
 * O               1      0.38755              0.01328             -0.55172         *
 * O               2     -0.07476             -0.64116             -0.12599         *
 * O               3      0.18639             -0.60562             -0.27346         *
 * Si              1     -0.29590             -0.84538              0.22187         *
 *                                                                                  *
 ************************************************************************************
  
 +------------+-------------+-------------+-----------------+ <-- min LBFGS
 |    Step    |   lambda    |   F.delta'  |    enthalpy     | <-- min LBFGS
 +------------+-------------+-------------+-----------------+ <-- min LBFGS
 |  previous  |    0.000000 |    1.766174 |    -3191.338497 | <-- min LBFGS
 | trial step |    0.980711 |   -4.712798 |    -3189.693981 | <-- min LBFGS
 |  line step |    0.267343 |   -0.486244 |    -3191.481604 | <-- min LBFGS
 +------------+-------------+-------------+-----------------+ <-- min LBFGS
  
 LBFGS: finished iteration     1 with enthalpy= -3.19148160E+003 eV
  
 +-----------+-----------------+-----------------+------------+-----+ <-- LBFGS
 | Parameter |      value      |    tolerance    |    units   | OK? | <-- LBFGS
 +-----------+-----------------+-----------------+------------+-----+ <-- LBFGS
 |  dE/ion   |   4.472081E-003 |   2.000000E-005 |         eV | No  | <-- LBFGS
 |  |F|max   |   1.064649E+000 |   5.000000E-002 |       eV/A | No  | <-- LBFGS
 |  |dR|max  |   7.212712E-002 |   2.000000E-003 |          A | No  | <-- LBFGS
 +-----------+-----------------+-----------------+------------+-----+ <-- LBFGS
  

================================================================================
 Starting LBFGS iteration          2 ...
================================================================================
  
 +------------+-------------+-------------+-----------------+ <-- min LBFGS
 |    Step    |   lambda    |   F.delta'  |    enthalpy     | <-- min LBFGS
 +------------+-------------+-------------+-----------------+ <-- min LBFGS
 |  previous  |    0.000000 |    0.711145 |    -3191.481604 | <-- min LBFGS
 +------------+-------------+-------------+-----------------+ <-- min LBFGS
  

--------------------------------------------------------------------------------
 LBFGS: starting iteration         2 with trial guess (lambda=  1.000000)
--------------------------------------------------------------------------------
 
                           -------------------------------
                                     Cell Contents
                           -------------------------------
 
            xxxxxxxxxxxxxxxxxxxxxxxxxxxxxxxxxxxxxxxxxxxxxxxxxxxxxxxxxxxxxxxxx
            x  Element         Atom        Fractional coordinates of atoms  x
            x                 Number           u          v          w      x
            x---------------------------------------------------------------x
            x  H                 1         0.576229   0.540016   0.516786   x
            x  H                 2         0.552998   0.606445   0.541074   x
            x  H                 3         0.446170   0.474445   0.542658   x
            x  H                 4         0.425552   0.540449   0.567560   x
            x  H                 5         0.406974   0.666295   0.482500   x
            x  H                 6         0.525885   0.668075   0.498926   x
            x  H                 7         0.548359   0.652464   0.448719   x
            x  H                 8         0.448904   0.599857   0.442896   x
            x  H                 9         0.640622   0.554596   0.474002   x
            x  H                10         0.619158   0.551844   0.435979   x
            x  H                11         0.405252   0.428418   0.487702   x
            x  H                12         0.653374   0.394710   0.456768   x
            x  H                13         0.462656   0.406132   0.422348   x
            x  H                14         0.412006   0.543538   0.500115   x
            x  H                15         0.387393   0.607534   0.524100   x
            x  H                16         0.620025   0.464095   0.560391   x
            x  H                17         0.602019   0.530694   0.585034   x
            x  H                18         0.582341   0.423669   0.611282   x
            x  H                19         0.485606   0.400639   0.586884   x
            x  H                20         0.468972   0.467513   0.611733   x
            x  C                 1         0.520528   0.562747   0.530924   x
            x  C                 2         0.482027   0.515642   0.553910   x
            x  C                 3         0.472657   0.637023   0.487473   x
            x  C                 4         0.510574   0.609537   0.457906   x
            x  C                 5         0.580838   0.550500   0.457515   x
            x  C                 6         0.564450   0.489602   0.574013   x
            x  C                 7         0.522623   0.442675   0.597298   x
            x  N                 1         0.443702   0.586939   0.511087   x
            x  O                 1         0.608411   0.411126   0.470686   x
            x  O                 2         0.480089   0.449718   0.425347   x
            x  O                 3         0.440988   0.468511   0.484788   x
            x  Si                1         0.529835   0.464697   0.458284   x
            xxxxxxxxxxxxxxxxxxxxxxxxxxxxxxxxxxxxxxxxxxxxxxxxxxxxxxxxxxxxxxxxx
 
 
------------------------------------------------------------------------ <-- SCF
SCF loop      Energy                           Energy gain       Timer   <-- SCF
                                               per atom          (sec)   <-- SCF
------------------------------------------------------------------------ <-- SCF
Initial  -3.20319478E+003                                        137.90  <-- SCF
      1  -3.19023913E+003                   -4.04864156E-001     138.71  <-- SCF
      2  -3.19049799E+003                    8.08948318E-003     139.84  <-- SCF
      3  -3.19038918E+003                   -3.40048173E-003     140.87  <-- SCF
      4  -3.19044292E+003                    1.67958052E-003     141.90  <-- SCF
      5  -3.19044758E+003                    1.45419926E-004     143.12  <-- SCF
      6  -3.19044781E+003                    7.22612562E-006     144.04  <-- SCF
      7  -3.19044772E+003                   -2.72967074E-006     144.85  <-- SCF
      8  -3.19044745E+003                   -8.65831863E-006     145.74  <-- SCF
      9  -3.19044736E+003                   -2.71149366E-006     146.52  <-- SCF
     10  -3.19044739E+003                    1.00681021E-006     147.31  <-- SCF
     11  -3.19044757E+003                    5.54245563E-006     148.09  <-- SCF
     12  -3.19044781E+003                    7.51004135E-006     148.87  <-- SCF
     13  -3.19044809E+003                    8.88458871E-006     149.69  <-- SCF
     14  -3.19044843E+003                    1.06208140E-005     150.49  <-- SCF
     15  -3.19044871E+003                    8.72619528E-006     151.27  <-- SCF
     16  -3.19044897E+003                    8.16082461E-006     152.06  <-- SCF
     17  -3.19044926E+003                    9.08434766E-006     152.85  <-- SCF
     18  -3.19044945E+003                    5.81192213E-006     153.65  <-- SCF
     19  -3.19044959E+003                    4.30146681E-006     154.44  <-- SCF
     20  -3.19044968E+003                    2.83631391E-006     155.23  <-- SCF
[...]
 * H              20     -0.00320             -0.00124             -0.00315         *
 * C               1      0.00055              0.01482             -0.00749         *
 * C               2     -0.00495             -0.01011              0.00784         *
 * C               3     -0.00618             -0.00355              0.00718         *
 * C               4     -0.00223             -0.00425             -0.01165         *
 * C               5     -0.01093             -0.00156             -0.00901         *
 * C               6      0.00308              0.00987              0.00484         *
 * C               7     -0.00019             -0.00381             -0.00235         *
 * N               1      0.00619             -0.00970             -0.00145         *
 * O               1     -0.00398             -0.00108              0.00045         *
 * O               2      0.00717              0.00717              0.01385         *
 * O               3     -0.00590             -0.00653              0.00044         *
 * Si              1      0.00829              0.00570             -0.00481         *
 *                                                                                  *
 ************************************************************************************
 
 Pseudo atomic calculation performed for H 1s1
 
 Converged in 13 iterations to a total energy of -12.4790 eV
 
 Pseudo atomic calculation performed for C 2s2 2p2
 
 Converged in 17 iterations to a total energy of -148.5208 eV
 
 Pseudo atomic calculation performed for N 2s2 2p3
 
 Converged in 21 iterations to a total energy of -268.1820 eV
 
 Pseudo atomic calculation performed for O 2s2 2p4
 
 Converged in 23 iterations to a total energy of -432.6536 eV
 
 Pseudo atomic calculation performed for Si 3s2 3p2
 
 Converged in 11 iterations to a total energy of -165.0683 eV
Charge spilling parameter for spin component 1 = 1.52%
 
            Orbital Populations       
     Ion    Atom   Orbital             Charge
  -------------------------------------------
      H     1      S                    0.716
      H     2      S                    0.696
      H     3      S                    0.744
      H     4      S                    0.735
      H     5      S                    0.681
      H     6      S                    0.696
      H     7      S                    0.679
      H     8      S                    0.718
      H     9      S                    0.746
      H    10      S                    0.682
      H    11      S                    0.460
      H    12      S                    0.454
      H    13      S                    0.455
      H    14      S                    0.568
      H    15      S                    0.518
      H    16      S                    0.731
      H    17      S                    0.726
      H    18      S                    0.702
      H    19      S                    0.736
      H    20      S                    0.724
      C     1      S                    1.288
      C     1      Px                   0.969
      C     1      Py                   1.156
      C     1      Pz                   0.969
      C     2      S                    1.293
      C     2      Px                   1.095
      C     2      Py                   1.086
      C     2      Pz                   1.037
      C     3      S                    1.305
      C     3      Px                   1.226
      C     3      Py                   0.974
      C     3      Pz                   0.910
      C     4      S                    1.306
      C     4      Px                   1.119
      C     4      Py                   1.110
      C     4      Pz                   1.002
      C     5      S                    1.401
      C     5      Px                   1.144
      C     5      Py                   1.176
      C     5      Pz                   1.250
      C     6      S                    1.304
      C     6      Px                   1.051
      C     6      Py                   1.120
      C     6      Pz                   1.035
      C     7      S                    1.399
      C     7      Px                   1.184
      C     7      Py                   1.110
      C     7      Pz                   1.099
      N     1      S                    1.575
      N     1      Px                   1.342
      N     1      Py                   1.370
      N     1      Pz                   1.314
      O     1      S                    1.855
      O     1      Px                   1.689
      O     1      Py                   1.738
      O     1      Pz                   1.813
      O     2      S                    1.852
      O     2      Px                   1.828
      O     2      Py                   1.690
      O     2      Pz                   1.716
      O     3      S                    1.848
      O     3      Px                   1.766
      O     3      Py                   1.668
      O     3      Pz                   1.795
     Si     1      S                    0.734
     Si     1      Px                   0.368
     Si     1      Py                   0.453
     Si     1      Pz                   0.299
  -------------------------------------------
                           Total:      74.000
  -------------------------------------------
 
     Atomic Populations (Mulliken)
     -----------------------------
Species          Ion     s       p       d       f      Total   Charge (e)
==========================================================================
  H               1     0.716   0.000   0.000   0.000   0.716     0.284
  H               2     0.696   0.000   0.000   0.000   0.696     0.304
  H               3     0.744   0.000   0.000   0.000   0.744     0.256
  H               4     0.735   0.000   0.000   0.000   0.735     0.265
  H               5     0.681   0.000   0.000   0.000   0.681     0.319
  H               6     0.696   0.000   0.000   0.000   0.696     0.304
  H               7     0.679   0.000   0.000   0.000   0.679     0.321
  H               8     0.718   0.000   0.000   0.000   0.718     0.282
  H               9     0.746   0.000   0.000   0.000   0.746     0.254
  H              10     0.682   0.000   0.000   0.000   0.682     0.318
  H              11     0.460   0.000   0.000   0.000   0.460     0.540
  H              12     0.454   0.000   0.000   0.000   0.454     0.546
  H              13     0.455   0.000   0.000   0.000   0.455     0.545
  H              14     0.568   0.000   0.000   0.000   0.568     0.432
  H              15     0.518   0.000   0.000   0.000   0.518     0.482
  H              16     0.731   0.000   0.000   0.000   0.731     0.269
  H              17     0.726   0.000   0.000   0.000   0.726     0.274
  H              18     0.702   0.000   0.000   0.000   0.702     0.298
  H              19     0.736   0.000   0.000   0.000   0.736     0.264
  H              20     0.724   0.000   0.000   0.000   0.724     0.276
  C               1     1.288   3.095   0.000   0.000   4.383    -0.383
  C               2     1.293   3.218   0.000   0.000   4.511    -0.511
  C               3     1.305   3.109   0.000   0.000   4.414    -0.414
  C               4     1.306   3.231   0.000   0.000   4.537    -0.537
  C               5     1.401   3.570   0.000   0.000   4.971    -0.971
  C               6     1.304   3.207   0.000   0.000   4.511    -0.511
  C               7     1.399   3.393   0.000   0.000   4.793    -0.793
  N               1     1.575   4.026   0.000   0.000   5.601    -0.601
  O               1     1.855   5.240   0.000   0.000   7.095    -1.095
  O               2     1.852   5.234   0.000   0.000   7.086    -1.086
  O               3     1.848   5.228   0.000   0.000   7.076    -1.076
  Si              1     0.734   1.120   0.000   0.000   1.854     2.146
==========================================================================
 
                 Bond                   Population      Length (A)
======================================================================
              H 13 -- O 2                    0.53        0.96835
              H 12 -- O 1                    0.53        0.96866
              H 11 -- O 3                    0.53        0.97034
              H 15 -- N 1                    0.68        1.02597
              H 14 -- N 1                    0.64        1.05712
              H 6  -- C 3                    0.86        1.09708
              H 5  -- C 3                    0.84        1.09735
              H 1  -- C 1                    0.88        1.09743
              H 18 -- C 7                    0.81        1.09796
              H 2  -- C 1                    0.86        1.09908
              H 20 -- C 7                    0.81        1.09930
              H 19 -- C 7                    0.81        1.10025
              H 10 -- C 5                    0.82        1.10078
              H 7  -- C 4                    0.83        1.10083
              H 9  -- C 5                    0.83        1.10129
              H 17 -- C 6                    0.84        1.10133
              H 8  -- C 4                    0.85        1.10167
              H 16 -- C 6                    0.84        1.10189
              H 3  -- C 2                    0.85        1.10245
              H 4  -- C 2                    0.85        1.10344
               C 1 -- N 1                    0.52        1.50388
               C 1 -- C 2                    0.72        1.51785
               C 3 -- N 1                    0.50        1.52192
               C 3 -- C 4                    0.70        1.52423
               C 6 -- C 7                    0.65        1.52728
               C 2 -- C 6                    0.69        1.53039
               C 4 -- C 5                    0.63        1.54903
               O 2 -- Si 1                   0.53        1.63369
               O 1 -- Si 1                   0.51        1.64394
              H 14 -- H 15                  -0.10        1.67814
               O 3 -- Si 1                   0.42        1.68529
              H 14 -- O 3                    0.11        1.68978
              H 9  -- H 10                  -0.10        1.74883
              H 7  -- H 8                   -0.11        1.75537
              H 16 -- H 17                  -0.12        1.76758
              H 18 -- H 20                  -0.10        1.77115
              H 3  -- H 4                   -0.13        1.77286
              H 5  -- H 6                   -0.11        1.77945
              H 19 -- H 20                  -0.11        1.77962
              H 18 -- H 19                  -0.10        1.77991
              H 1  -- H 2                   -0.11        1.78794
               C 5 -- Si 1                   0.64        1.87070
              H 15 -- C 1                   -0.13        2.06165
              H 14 -- C 1                   -0.12        2.07115
              H 15 -- C 3                   -0.13        2.09789
              H 1  -- N 1                   -0.11        2.09796
              H 7  -- C 3                   -0.13        2.09953
              H 2  -- N 1                   -0.11        2.10881
              H 6  -- N 1                   -0.11        2.11142
              H 5  -- N 1                   -0.11        2.11848
              H 14 -- C 3                   -0.10        2.12484
              H 16 -- C 2                   -0.14        2.15047
              H 3  -- C 1                   -0.13        2.15334
              H 4  -- C 1                   -0.14        2.15386
              H 8  -- C 3                   -0.14        2.15768
              H 17 -- C 2                   -0.13        2.15955
              H 5  -- C 4                   -0.13        2.16081
              H 3  -- C 6                   -0.12        2.16232
              H 17 -- C 7                   -0.13        2.16570
              H 16 -- C 7                   -0.13        2.16863
              H 4  -- C 6                   -0.12        2.17041
              H 10 -- C 4                   -0.11        2.17330
              H 6  -- C 4                   -0.13        2.17471
              H 18 -- C 6                   -0.12        2.17670
              H 1  -- C 2                   -0.12        2.17680
              H 19 -- C 6                   -0.12        2.17725
              H 2  -- C 2                   -0.12        2.18161
              H 20 -- C 6                   -0.12        2.18174
              H 7  -- C 5                   -0.12        2.18398
              H 5  -- H 15                  -0.07        2.19132
              H 1  -- H 9                   -0.04        2.19220
              H 9  -- C 4                   -0.11        2.19951
              H 8  -- C 5                   -0.13        2.20049
              H 12 -- Si 1                  -0.13        2.28329
              H 11 -- Si 1                  -0.12        2.29869
              H 2  -- H 6                   -0.03        2.30984
              H 13 -- Si 1                  -0.13        2.31159
              H 7  -- H 10                  -0.07        2.33183
              H 1  -- H 14                  -0.04        2.34600
              H 11 -- H 14                  -0.02        2.36732
              H 10 -- Si 1                  -0.13        2.40836
              H 6  -- H 7                   -0.04        2.41351
              H 4  -- H 15                  -0.01        2.42263
              H 5  -- H 8                   -0.04        2.42409
              H 3  -- H 14                  -0.01        2.43032
              H 2  -- H 15                  -0.03        2.43686
              H 5  -- H 7                   -0.02        2.45010
               C 2 -- N 1                   -0.14        2.48023
              H 9  -- Si 1                  -0.12        2.48571
              H 3  -- H 16                  -0.04        2.48653
              H 16 -- H 18                  -0.03        2.49625
              H 2  -- H 4                   -0.04        2.49913
              H 17 -- H 20                  -0.03        2.51304
               C 1 -- C 6                   -0.15        2.51948
              H 17 -- H 18                  -0.03        2.52103
              H 4  -- H 17                  -0.03        2.52984
              H 1  -- H 3                   -0.03        2.53386
              H 6  -- C 1                   -0.07        2.53537
              H 1  -- H 16                  -0.01        2.53883
               C 2 -- C 7                   -0.15        2.53970
              H 16 -- H 19                  -0.03        2.54319
              H 14 -- C 4                   -0.06        2.55217
               C 4 -- N 1                   -0.12        2.55519
               C 1 -- C 3                   -0.13        2.56499
              H 3  -- H 19                  -0.01        2.57125
              H 2  -- H 17                  -0.01        2.59210
               C 3 -- C 5                   -0.15        2.59325
              H 15 -- C 2                   -0.04        2.59967
              H 8  -- H 14                  -0.00        2.60120
              H 4  -- H 20                  -0.01        2.61142
              H 6  -- H 9                   -0.01        2.61262
               O 1 -- O 3                   -0.08        2.61472
              H 3  -- N 1                   -0.03        2.67953
              H 14 -- C 2                   -0.03        2.68008
              H 9  -- C 3                   -0.06        2.68487
              H 1  -- H 6                   -0.01        2.68587
              H 6  -- H 15                   0.01        2.68643
               N 1 -- O 3                   -0.13        2.71791
              H 8  -- H 10                   0.01        2.72855
              H 17 -- C 1                   -0.04        2.72874
              H 2  -- C 3                   -0.04        2.73007
              H 5  -- H 14                   0.01        2.73013
              H 7  -- H 9                   -0.00        2.73031
              H 4  -- N 1                   -0.03        2.73910
              H 16 -- C 1                   -0.04        2.74244
               O 1 -- O 2                   -0.08        2.75736
              H 11 -- O 1                   -0.01        2.76581
              H 4  -- C 7                   -0.04        2.76704
               O 2 -- O 3                   -0.07        2.76905
              H 1  -- C 6                   -0.04        2.77260
              H 19 -- C 2                   -0.04        2.78141
              H 3  -- C 7                   -0.04        2.78323
              H 10 -- O 2                   -0.01        2.78709
               C 5 -- O 2                   -0.10        2.79402
              H 1  -- C 3                   -0.02        2.80421
               C 5 -- O 3                   -0.10        2.81104
              H 14 -- Si 1                  -0.04        2.81189
              H 2  -- C 6                   -0.03        2.83297
              H 20 -- C 2                   -0.03        2.83322
              H 14 -- C 5                   -0.02        2.84025
              H 3  -- H 15                  -0.00        2.85684
              H 8  -- O 3                   -0.00        2.86531
              H 3  -- H 11                  -0.01        2.87502
              H 8  -- Si 1                  -0.08        2.88338
               C 4 -- Si 1                  -0.14        2.88619
              H 8  -- N 1                   -0.02        2.89208
              H 1  -- C 5                   -0.03        2.89361
              H 6  -- C 5                   -0.03        2.90359
              H 6  -- H 14                   0.02        2.91007
              H 1  -- H 15                   0.04        2.93734
              H 12 -- O 2                   -0.01        2.94999
              H 3  -- O 3                   -0.00        2.95385
              H 2  -- H 14                   0.03        2.96490
               C 5 -- O 1                   -0.09        2.97582
======================================================================
 
 
     Hirshfeld Analysis
     ------------------
Species   Ion     Hirshfeld Charge (e)
======================================
  H        1                 0.06
  H        2                 0.06
  H        3                 0.04
  H        4                 0.05
  H        5                 0.07
  H        6                 0.06
  H        7                 0.07
  H        8                 0.05
  H        9                 0.04
  H       10                 0.06
  H       11                 0.18
  H       12                 0.18
  H       13                 0.18
  H       14                 0.11
  H       15                 0.17
  H       16                 0.04
  H       17                 0.04
  H       18                 0.05
  H       19                 0.04
  H       20                 0.05
  C        1                 0.01
  C        2                -0.06
  C        3                 0.01
  C        4                -0.05
  C        5                -0.15
  C        6                -0.05
  C        7                -0.10
  N        1                 0.02
  O        1                -0.28
  O        2                -0.27
  O        3                -0.24
  Si       1                 0.48
======================================
 

Writing analysis data to Conf_0027.castep_bin

Writing model to Conf_0027.check
 
 A BibTeX formatted list of references used in this run has been written to 
 Conf_0027.bib
 
Initialisation time =     25.08 s
Calculation time    =    844.67 s
Finalisation time   =      1.11 s
Total time          =    870.86 s
Peak Memory Use     = 7914128 kB
 
Overall parallel efficiency rating: Satisfactory (67%)
 
Data was distributed by:-
G-vector (48-way); efficiency rating: Satisfactory (67%)
High Water Mark     = 1770828 kB
