 Job started on host drago31060179.mgmt.cc.csic.es
 at Sun Mar 31 01:33:22 2024

 +-------------------------------------------------+
 |                                                 |
 |      CCC   AA    SSS  TTTTT  EEEEE  PPPP        |
 |     C     A  A  S       T    E      P   P       |
 |     C     AAAA   SS     T    EEE    PPPP        |
 |     C     A  A     S    T    E      P           |
 |      CCC  A  A  SSS     T    EEEEE  P           |
 |                                                 |
 +-------------------------------------------------+
 |                                                 |
 | Materials Studio CASTEP version 2024            |
 | Ab Initio Total Energy Program                  |
 |                                                 |
 | Authors:                                        |
 | M. Segall, M. Probert, C. Pickard, P. Hasnip,   |
 | S. Clark, K. Refson, J. R. Yates,               |
 | A. Bartok-Partay, M. Payne                      |
 |                                                 |
 | Contributors:                                   |
 | P. Lindan, P. Haynes, J. White, V. Milman,      |
 | N. Govind, M. Gibson, P. Tulip, V. Cocula,      |
 | B. Montanari, D. Quigley, M. Glover,            |
 | L. Bernasconi, A. Perlov, M. Plummer,           |
 | E. McNellis, J. Meyer, J. Gale, D. Jochym       |
 | J. Aarons, B. Walker, R. Gillen, D. Jones       |
 | T. Green, I. J. Bush, C. J. Armstrong,          |
 | E. J. Higgins, E. L. Brown, M. S. McFly,        |
 | J. Wilkins, B-C. Shih, P. J. P. Byrne,          |
 | R. J. Maurer, J. C. Womack, J. Dziedzic,        |
 | L. LeBlanc, T. K. Stenczel, J. Kermode,         |
 | S. Sturniolo, B. Shi, B. Durham, M. Evans,      |
 | M. J. Smith, A. Tamerus, Z. Hawkhead,           |
 | V. Ravindran, T. Hollins, S. A. Joyce,          |
 | R. T. Strong, A. M. Reilly                      |
 |                                                 |
 | Copyright (c) 2000 - 2023                       |
 |                                                 |
 | Please cite                                     |
 |                                                 |
 |     "First principles methods using CASTEP"     |
 |                                                 |
 |         Zeitschrift fuer Kristallographie       |
 |           220(5-6) pp. 567-570 (2005)           |
 |                                                 |
 | S. J. Clark, M. D. Segall, C. J. Pickard,       |
 | P. J. Hasnip, M. J. Probert, K. Refson,         |
 | M. C. Payne                                     |
 |                                                 |
 |       in all publications arising from          |
 |              your use of CASTEP                 |
 |                                                 |
 +-------------------------------------------------+
 |                                                 |
 |              http://www.castep.org              |
 |                                                 |
 +-------------------------------------------------+
 
 
 This version was compiled for x86_64-rhel7-intel19.0 on Oct 24 2023
 Code version:    a9f326b
 Intel(R) Math Kernel Library Version 2019.0.4 
 Fundamental constants values: CODATA 2018
 
License checkout of MS_castep successful
 
 
 Atomic calculation performed for H: 1s1
 
 Converged in 41 iterations to an ae energy of -12.488 eV
 
 Identity difference: 2.63E-05
 
   ============================================================                
   | Pseudopotential Report - Date of generation 31-03-2024   |                
   ------------------------------------------------------------                
   | Element: H Ionic charge:  1.00 Level of theory: PBE      |                
   | Atomic Solver: Koelling-Harmon                           |                
   |                                                          |                
   |               Reference Electronic Structure             |                
   |         Orbital         Occupation         Energy        |                
   |            1s              1.000           -0.239        |                
   |                                                          |                
   |                 Pseudopotential Definition               |                
   |        Beta     l      e      Rc     scheme   norm       |                
   |          1      0   -0.239   0.599     qc      0         |                
   |          2      0    0.250   0.599     qc      0         |                
   |         loc     1    0.000   0.599     pn      0         |                
   |                                                          |                
   | Augmentation charge Rinner = 0.421                       |                
   | No partial core correction                               |                
   ------------------------------------------------------------                
   | "1|0.6|9|10|15|10UU(qc=8)[]"                             |                
   ------------------------------------------------------------                
   |      Author: Chris J. Pickard, Cambridge University      |                
   ============================================================                
 
 Doing a self consistent calculation for the test configuration
 
 Atomic calculation performed for H: 1s1
 
 Converged in 41 iterations to an ae energy of -12.488 eV
 
 ---------------------------------------
 AE eigenvalue nl 10 =       -0.23860176
 ---------------------------------------
 PS eigenvalue nl 10 =       -0.23857601
 ---------------------------------------
 Maximum eigenvalue error:   2.57E-05
 
 Derived cutoff energies: C=   1 M=   6 F=  10 E=  20
 
 Checking for ghost states up to   1.51185 Ha
 
 No Ghost States Identified
 
 ***************************************
 
 Atomic calculation performed for C: 1s2 2s2 2p2
 
 Converged in 54 iterations to an ae energy of -1027.632 eV
 
 Identity difference: 2.37E-04
 
   ============================================================                
   | Pseudopotential Report - Date of generation 31-03-2024   |                
   ------------------------------------------------------------                
   | Element: C Ionic charge:  4.00 Level of theory: PBE      |                
   | Atomic Solver: Koelling-Harmon                           |                
   |                                                          |                
   |               Reference Electronic Structure             |                
   |         Orbital         Occupation         Energy        |                
   |            2s              2.000           -0.505        |                
   |            2p              2.000           -0.194        |                
   |                                                          |                
   |                 Pseudopotential Definition               |                
   |        Beta     l      e      Rc     scheme   norm       |                
   |          1      0   -0.505   1.395     qc      0         |                
   |          2      0    0.250   1.395     qc      0         |                
   |          3      1   -0.194   1.395     qc      0         |                
   |          4      1    0.250   1.395     qc      0         |                
   |         loc     2    0.000   1.395     pn      0         |                
   |                                                          |                
   | Augmentation charge Rinner = 0.983                       |                
   | Partial core correction Rc = 0.983                       |                
   ------------------------------------------------------------                
   | "2|1.4|11|12|14.7|20UU:21UU(qc=7)[]"                     |                
   ------------------------------------------------------------                
   |      Author: Chris J. Pickard, Cambridge University      |                
   ============================================================                
 
 Doing a self consistent calculation for the test configuration
 
 Atomic calculation performed for C: 1s2 2s2 2p2
 
 Converged in 54 iterations to an ae energy of -1027.632 eV
 
 ---------------------------------------
 AE eigenvalue nl 10 =      -10.04653081
 AE eigenvalue nl 20 =       -0.50533429
 AE eigenvalue nl 21 =       -0.19423807
 ---------------------------------------
 PS eigenvalue nl 20 =       -0.50531853
 PS eigenvalue nl 21 =       -0.19422214
 ---------------------------------------
 Maximum eigenvalue error:   1.59E-05
 
 Derived cutoff energies: C=   6 M=  10 F=  12 E=  16
 
 Checking for ghost states up to   1.47183 Ha
 
 No Ghost States Identified
 
 ***************************************
 
 Atomic calculation performed for N: 1s2 2s2 2p3
 
 Converged in 55 iterations to an ae energy of -1481.742 eV
 
 Identity difference: 2.27E-04
 
   ============================================================                
   | Pseudopotential Report - Date of generation 31-03-2024   |                
   ------------------------------------------------------------                
   | Element: N Ionic charge:  5.00 Level of theory: PBE      |                
   | Atomic Solver: Koelling-Harmon                           |                
   |                                                          |                
   |               Reference Electronic Structure             |                
   |         Orbital         Occupation         Energy        |                
   |            2s              2.000           -0.683        |                
   |            2p              3.000           -0.261        |                
   |                                                          |                
   |                 Pseudopotential Definition               |                
   |        Beta     l      e      Rc     scheme   norm       |                
   |          1      0   -0.683   1.100     qc      0         |                
   |          2      0    0.250   1.100     qc      0         |                
   |          3      1   -0.261   1.100     qc      0         |                
   |          4      1    0.250   1.100     qc      0         |                
   |         loc     2    0.000   1.100     pn      0         |                
   |                                                          |                
   | Augmentation charge Rinner = 0.769                       |                
   | Partial core correction Rc = 0.769                       |                
   ------------------------------------------------------------                
   | "2|1.1|12|16|19|20UU:21UU(qc=7)[]"                       |                
   ------------------------------------------------------------                
   |      Author: Chris J. Pickard, Cambridge University      |                
   ============================================================                
 
 Doing a self consistent calculation for the test configuration
 
 Atomic calculation performed for N: 1s2 2s2 2p3
 
 Converged in 55 iterations to an ae energy of -1481.742 eV
 
 ---------------------------------------
 AE eigenvalue nl 10 =      -14.13820921
 AE eigenvalue nl 20 =       -0.68290611
 AE eigenvalue nl 21 =       -0.26054797
 ---------------------------------------
 PS eigenvalue nl 20 =       -0.68291221
 PS eigenvalue nl 21 =       -0.26051708
 ---------------------------------------
 Maximum eigenvalue error:   3.09E-05
 
 Derived cutoff energies: C=  10 M=  15 F=  18 E=  23
 
 Checking for ghost states up to   1.48495 Ha
 
 No Ghost States Identified
 
 ***************************************
 
 Atomic calculation performed for O: 1s2 2s2 2p4
 
 Converged in 61 iterations to an ae energy of -2040.902 eV
 
 Identity difference: 4.10E-04
 
   ============================================================                
   | Pseudopotential Report - Date of generation 31-03-2024   |                
   ------------------------------------------------------------                
   | Element: O Ionic charge:  6.00 Level of theory: PBE      |                
   | Atomic Solver: Koelling-Harmon                           |                
   |                                                          |                
   |               Reference Electronic Structure             |                
   |         Orbital         Occupation         Energy        |                
   |            2s              2.000           -0.881        |                
   |            2p              4.000           -0.332        |                
   |                                                          |                
   |                 Pseudopotential Definition               |                
   |        Beta     l      e      Rc     scheme   norm       |                
   |          1      0   -0.881   1.100     qc      0         |                
   |          2      0    0.250   1.100     qc      0         |                
   |          3      1   -0.332   1.100     qc      0         |                
   |          4      1    0.250   1.100     qc      0         |                
   |         loc     2    0.000   1.100     pn      0         |                
   |                                                          |                
   | Augmentation charge Rinner = 0.769                       |                
   | Partial core correction Rc = 0.769                       |                
   ------------------------------------------------------------                
   | "2|1.1|14|18|21|20UU:21UU(qc=7)[]"                       |                
   ------------------------------------------------------------                
   |      Author: Chris J. Pickard, Cambridge University      |                
   ============================================================                
 
 Doing a self consistent calculation for the test configuration
 
 Atomic calculation performed for O: 1s2 2s2 2p4
 
 Converged in 61 iterations to an ae energy of -2040.902 eV
 
 ---------------------------------------
 AE eigenvalue nl 10 =      -18.91475256
 AE eigenvalue nl 20 =       -0.88057101
 AE eigenvalue nl 21 =       -0.33186952
 ---------------------------------------
 PS eigenvalue nl 20 =       -0.88059206
 PS eigenvalue nl 21 =       -0.33182157
 ---------------------------------------
 Maximum eigenvalue error:   4.80E-05
 
 Derived cutoff energies: C=  14 M=  17 F=  20 E=  22
 
 Checking for ghost states up to   1.49452 Ha
 
 No Ghost States Identified
 
 ***************************************
 
 Atomic calculation performed for Si: 1s2 2s2 2p6 3s2 3p2
 
 Converged in 54 iterations to an ae energy of -7886.857 eV
 
 Identity difference: 1.35E-04
 
   ============================================================                
   | Pseudopotential Report - Date of generation 31-03-2024   |                
   ------------------------------------------------------------                
   | Element: Si Ionic charge:  4.00 Level of theory: PBE     |                
   | Atomic Solver: Koelling-Harmon                           |                
   |                                                          |                
   |               Reference Electronic Structure             |                
   |         Orbital         Occupation         Energy        |                
   |            3s              2.000           -0.397        |                
   |            3p              2.000           -0.150        |                
   |                                                          |                
   |                 Pseudopotential Definition               |                
   |        Beta     l      e      Rc     scheme   norm       |                
   |          1      0   -0.397   1.797     qc      0         |                
   |          2      0    0.250   1.797     qc      0         |                
   |          3      1   -0.150   1.797     qc      0         |                
   |          4      1    0.250   1.797     qc      0         |                
   |          5      2    0.000   1.797     qc      0         |                
   |          6      2    0.250   1.797     qc      0         |                
   |         loc     3    0.000   1.797     pn      0         |                
   |                                                          |                
   | Augmentation charge Rinner = 1.255                       |                
   | Partial core correction Rc = 1.255                       |                
   ------------------------------------------------------------                
   | "3|1.8|3.6|5|7|30UU:31UU:32UU[]"                         |                
   ------------------------------------------------------------                
   |      Author: Chris J. Pickard, Cambridge University      |                
   ============================================================                
 
 Doing a self consistent calculation for the test configuration
 
 Atomic calculation performed for Si: 1s2 2s2 2p6 3s2 3p2
 
 Converged in 54 iterations to an ae energy of -7886.857 eV
 
 ---------------------------------------
 AE eigenvalue nl 10 =      -65.63192903
 AE eigenvalue nl 20 =       -5.12654326
 AE eigenvalue nl 21 =       -3.51173659
 AE eigenvalue nl 30 =       -0.39736430
 AE eigenvalue nl 31 =       -0.14998156
 ---------------------------------------
 PS eigenvalue nl 30 =       -0.39734922
 PS eigenvalue nl 31 =       -0.14996719
 ---------------------------------------
 Maximum eigenvalue error:   1.51E-05
 
 Derived cutoff energies: C=   1 M=   3 F=   6 E=   6
 
 Checking for ghost states up to   1.41161 Ha
 
 No Ghost States Identified
 
 ***************************************
 
 Pseudo atomic calculation performed for H 1s1
 
 Converged in 13 iterations to a total energy of -12.4790 eV
 
 Pseudo atomic calculation performed for C 2s2 2p2
 
 Converged in 17 iterations to a total energy of -148.5208 eV
 
 Pseudo atomic calculation performed for N 2s2 2p3
 
 Converged in 21 iterations to a total energy of -268.1820 eV
 
 Pseudo atomic calculation performed for O 2s2 2p4
 
 Converged in 23 iterations to a total energy of -432.6536 eV
 
 Pseudo atomic calculation performed for Si 3s2 3p2
 
 Converged in 11 iterations to a total energy of -165.0683 eV
 Calculation parallelised over 48 processes.
 Data is distributed by G-vector(48-way)

 ************************************ Title ************************************
 CASTEP calculation from BIOVIA Materials Studio 2024

 ***************************** General Parameters ******************************
  
 output verbosity                               : normal  (1)
 write checkpoint data to                       : Conf_0028.check
 type of calculation                            : geometry optimization
 stress calculation                             : off
 density difference calculation                 : off
 electron localisation func (ELF) calculation   : off
 Hirshfeld analysis                             : on
 polarisation (Berry phase) analysis            : off
 molecular orbital projected DOS                : off
 deltaSCF calculation                           : off
 unlimited duration calculation
 timing information                             : on
 memory usage estimate                          : on
 write extra output files                       : on
 write final potential to formatted file        : off
 write final density to formatted file          : off
 write BibTeX reference list                    : on
 write OTFG pseudopotential files               : on
 write electrostatic potential file             : on
 write bands file                               : on
 checkpoint writing                             : both castep_bin and check files
  
 output         length unit                     : A
 output           mass unit                     : amu
 output           time unit                     : ps
 output         charge unit                     : e
 output           spin unit                     : hbar/2
 output         energy unit                     : eV
 output          force unit                     : eV/A
 output       velocity unit                     : A/ps
 output       pressure unit                     : GPa
 output     inv_length unit                     : 1/A
 output      frequency unit                     : cm-1
 output force constant unit                     : eV/A**2
 output         volume unit                     : A**3
 output   IR intensity unit                     : (D/A)**2/amu
 output         dipole unit                     : D
 output         efield unit                     : eV/A/e
 output        entropy unit                     : J/mol/K
 output    efield chi2 unit                     : pm/V
  
 wavefunctions paging                           : none
 random number generator seed                   :   13324794
 data distribution                              : optimal for this architecture
 optimization strategy                          : balance speed and memory

 *********************** Exchange-Correlation Parameters ***********************
  
 using functional                               : Perdew Burke Ernzerhof
 relativistic treatment                         : Koelling-Harmon
 DFT+D: Semi-empirical dispersion correction    : on
 SEDC with                                      : G06 correction scheme

 ************************* Pseudopotential Parameters **************************
  
 pseudopotential representation                 : reciprocal space
 <beta|phi> representation                      : reciprocal space
 spin-orbit coupling                            : off

 **************************** Basis Set Parameters *****************************
  
 plane wave basis set cut-off                   :   600.0000   eV
 size of standard grid                          :     1.5000
 size of   fine   gmax                          :    18.8237   1/A
 largest prime factor in FFT                    :          5
 finite basis set correction                    : none

 **************************** Electronic Parameters ****************************
  
 number of  electrons                           :  74.00    
 net charge of system                           : +1.000    
 treating system as non-spin-polarized
 number of bands                                :         37

 ********************* Electronic Minimization Parameters **********************
  
 Method: Treating system as non-metallic,
         and number of  SD  steps               :          1
         and number of  CG  steps               :          4
  
 total energy / atom convergence tol.           : 0.2000E-05   eV
 eigen-energy convergence tolerance             : 0.1000E-05   eV
 max force / atom convergence tol.              : ignored
 convergence tolerance window                   :          3   cycles
 max. number of SCF cycles                      :        100
 periodic dipole correction                     : NONE

 ************************** Density Mixing Parameters **************************
  
 density-mixing scheme                          : Pulay
 max. length of mixing history                  :         20
 charge density mixing amplitude                : 0.5000    
 cut-off energy for mixing                      :  600.0       eV
 charge density mixing g-vector                 :  1.500       1/A

 *********************** Population Analysis Parameters ************************
  
 Population analysis with cutoff                :  3.000       A
 Population analysis output                     : summary and pdos components

 ********************** Geometry Optimization Parameters ***********************
  
 optimization method                            : LBFGS
 max. no. of LBFGS updates                      : unbounded
 preconditioned LBFGS is activated
 preconditioner type                            : EXP
     stabilization constant                     :     0.1000
     parameter A                                :     3.0000
     nearest neighbor distance                  : automatic
     cut-off distance                           : automatic
     parameter mu                               : automatic
 variable cell method                           : fixed basis quality
 max. number of steps                           :        300
 estimated bulk modulus                         :  500.0       GPa
 estimated <frequency>                          :  1668.       cm-1
 geom line minimiser                            : on
 with line minimiser tolerance                  :     0.4000
 total energy convergence tolerance             : 0.2000E-04   eV/atom
        max ionic |force| tolerance             : 0.5000E-01   eV/A
 max ionic |displacement| tolerance             : 0.2000E-02   A
   max |stress component| tolerance             : 0.1000       GPa
 convergence tolerance window                   :          2   steps
 backup results every                           :          5   steps
 write geom trajectory file                     : on

 *******************************************************************************
  
 
                           -------------------------------
                                      Unit Cell
                           -------------------------------
        Real Lattice(A)                      Reciprocal Lattice(1/A)
    13.4840002    -0.0000006    -0.0000006        0.465973392   0.000000000   0.000000000
     0.0000000    20.4006996    -0.0000009        0.000000013   0.307988717   0.000000000
     0.0000000     0.0000000    45.0000000        0.000000006   0.000000006   0.139626340
 
                       Lattice parameters(A)       Cell Angles
                    a =     13.484000          alpha =   90.000003
                    b =     20.400700          beta  =   90.000003
                    c =     45.000000          gamma =   90.000003
 
                       Current cell volume =         12378.736702       A**3
                                   density =             0.015698   AMU/A**3
                                           =             0.026068     g/cm^3
 
                           -------------------------------
                                     Cell Contents
                           -------------------------------
                         Total number of ions in cell =   32
                      Total number of species in cell =    5
                        Max number of any one species =   20
 
            xxxxxxxxxxxxxxxxxxxxxxxxxxxxxxxxxxxxxxxxxxxxxxxxxxxxxxxxxxxx
            x  Element    Atom        Fractional coordinates of atoms  x
            x            Number           u          v          w      x
            x----------------------------------------------------------x
            x  H            1         0.465900   0.379375   0.560858   x 
            x  H            2         0.591822   0.403749   0.553801   x 
            x  H            3         0.427559   0.492728   0.579933   x 
            x  H            4         0.551231   0.517933   0.572372   x 
            x  H            5         0.574252   0.368542   0.504820   x 
            x  H            6         0.446866   0.346594   0.511340   x 
            x  H            7         0.395085   0.425913   0.470180   x 
            x  H            8         0.469075   0.359983   0.457781   x 
            x  H            9         0.621386   0.432832   0.459472   x 
            x  H           10         0.544965   0.500488   0.468552   x 
            x  H           11         0.521191   0.396269   0.377202   x 
            x  H           12         0.607347   0.523024   0.380284   x 
            x  H           13         0.395096   0.511673   0.390508   x 
            x  H           14         0.412937   0.461177   0.523867   x 
            x  H           15         0.529115   0.482527   0.517265   x 
            x  H           16         0.491952   0.408892   0.616186   x 
            x  H           17         0.615032   0.434000   0.608458   x 
            x  H           18         0.555846   0.485339   0.655145   x 
            x  H           19         0.452807   0.520855   0.636564   x 
            x  H           20         0.575564   0.547271   0.628010   x 
            x  C            1         0.514566   0.421201   0.555479   x 
            x  C            2         0.505041   0.475465   0.578655   x 
            x  C            3         0.496716   0.385235   0.502934   x 
            x  C            4         0.470794   0.405442   0.471190   x 
            x  C            5         0.545729   0.452825   0.457006   x 
            x  C            6         0.537502   0.451448   0.609490   x 
            x  C            7         0.529887   0.504141   0.633516   x 
            x  N            1         0.484156   0.445689   0.523938   x 
            x  O            1         0.607783   0.514154   0.400970   x 
            x  O            2         0.415316   0.501345   0.410150   x 
            x  O            3         0.524280   0.397269   0.398245   x 
            x  Si           1         0.523165   0.467314   0.415668   x 
            xxxxxxxxxxxxxxxxxxxxxxxxxxxxxxxxxxxxxxxxxxxxxxxxxxxxxxxxxxxx
 
 
                         No user defined ionic velocities
 
                           -------------------------------
                                   Details of Species
                           -------------------------------
 
                               Mass of species in AMU
                                    H    1.0080000
                                    C   12.0109997
                                    N   14.0070000
                                    O   15.9989996
                                    Si   28.0849991
 
                          Electric Quadrupole Moment (Barn)
                                    H    0.0028600 Isotope  2
                                    C    0.0332700 Isotope 11
                                    N    0.0204400 Isotope 14
                                    O   -0.0255800 Isotope 17
                                    Si    1.0000000 No Isotope Defined
 
                          Files used for pseudopotentials:
                                    H 1|0.6|9|10|15|10UU(qc=8)[]
                                    C 2|1.4|11|12|14.7|20UU:21UU(qc=7)[]
                                    N 2|1.1|12|16|19|20UU:21UU(qc=7)[]
                                    O 2|1.1|14|18|21|20UU:21UU(qc=7)[]
                                    Si 3|1.8|3.6|5|7|30UU:31UU:32UU[]
 
                           -------------------------------
                              k-Points For BZ Sampling
                           -------------------------------
                       MP grid size for SCF calculation is  1  1  1
                            with an offset of   0.000  0.000  0.000
                       Number of kpoints used =             1
 
                           -------------------------------
                               Symmetry and Constraints
                           -------------------------------
 
                      Maximum deviation from symmetry =  0.00000         ANG
 
                      Number of symmetry operations   =           1
                      Number of nonlinear constraints =           3
         There are no ionic constraints specified or generated for this cell
                      Point group of crystal =     1: C1, 1, 1
                      Space group of crystal =     1: P1, P 1
 
             Set iprint > 1 for details on symmetry rotations/translations
 
                         Centre of mass is NOT constrained
 
                         Number of cell constraints= 6
                         Cell constraints are:  0 0 0 0 0 0
 
                         External pressure/stress (GPa)
                          0.00000   0.00000   0.00000
                                    0.00000   0.00000
                                              0.00000
 
                                --------------------
                                  DFT-D parameters
                                --------------------
 
                          Dispersion-correction scheme : G06       
                        Parameter s6 :   0.750000 (default)
                        Parameter d  :  20.000000 (default)
 
        xxxxxxxxxxxxxxxxxxxxxxxxxxxxxxxxxxxxxxxxxxxxxxxxxxxxxxxxxxxxxxxxxxxx
        x              Atomic DFT-D parameters                             x
        x  Species      C6            R0                                   x
        x               eV A^6        Ang                                  x
        x------------------------------------------------------------------x
        x  H             1.4510       1.0010   (default)                   x
        x  C            18.1375       1.4520   (default)                   x
        x  N            12.7481       1.3970   (default)                   x
        x  O             7.2550       1.3420   (default)                   x
        x  Si           95.6622       1.7160   (default)                   x
        xxxxxxxxxxxxxxxxxxxxxxxxxxxxxxxxxxxxxxxxxxxxxxxxxxxxxxxxxxxxxxxxxxxx
 
 
+---------------- MEMORY AND SCRATCH DISK ESTIMATES PER PROCESS --------------+
|                                                     Memory          Disk    |
| Baseline code, static data and system overhead     6530.0 MB         0.0 MB |
| BLAS internal memory storage                          0.0 MB         0.0 MB |
| Model and support data                              540.6 MB         0.0 MB |
| Electronic energy minimisation requirements          31.8 MB         0.0 MB |
| Force calculation requirements                        6.8 MB         0.0 MB |
|                                               ----------------------------- |
| Approx. total storage required per process         7102.3 MB         0.0 MB |
|                                                                             |
| Requirements will fluctuate during execution and may exceed these estimates |
+-----------------------------------------------------------------------------+
Calculating approximate eigenstates for fixed initial Hamiltonian
Cut-off for approx. calculation is  119.774 eV
Improving approx. states at cut-off of  300.000 eV
Resetting cut-off to  600.000 eV
Calculating total energy with cut-off of  600.000 eV.
------------------------------------------------------------------------ <-- SCF
SCF loop      Energy                           Energy gain       Timer   <-- SCF
                                               per atom          (sec)   <-- SCF
------------------------------------------------------------------------ <-- SCF
Initial  -2.94818512E+003                                         31.36  <-- SCF
      1  -3.20330451E+003                    7.97248090E+000      32.21  <-- SCF
      2  -3.20367341E+003                    1.15280933E-002      33.11  <-- SCF
      3  -3.19270147E+003                   -3.42872963E-001      34.15  <-- SCF
      4  -3.19148698E+003                   -3.79530089E-002      35.39  <-- SCF
      5  -3.19085854E+003                   -1.96387852E-002      36.40  <-- SCF
      6  -3.19076706E+003                   -2.85879420E-003      37.70  <-- SCF
      7  -3.19070282E+003                   -2.00744082E-003      38.71  <-- SCF
      8  -3.19069470E+003                   -2.53800906E-004      39.83  <-- SCF
      9  -3.19068429E+003                   -3.25217263E-004      40.84  <-- SCF
     10  -3.19067177E+003                   -3.91323886E-004      41.87  <-- SCF
     11  -3.19064474E+003                   -8.44457766E-004      42.90  <-- SCF
     12  -3.19059521E+003                   -1.54797864E-003      43.92  <-- SCF
     13  -3.19053165E+003                   -1.98630683E-003      44.95  <-- SCF
     14  -3.19047110E+003                   -1.89208921E-003      45.95  <-- SCF
     15  -3.19042462E+003                   -1.45258336E-003      46.96  <-- SCF
     16  -3.19038792E+003                   -1.14693965E-003      47.94  <-- SCF
     17  -3.19035232E+003                   -1.11246679E-003      48.93  <-- SCF
     18  -3.19033129E+003                   -6.57003098E-004      49.91  <-- SCF
     19  -3.19030528E+003                   -8.13006522E-004      50.91  <-- SCF
     20  -3.19027959E+003                   -8.02664528E-004      51.94  <-- SCF
     21  -3.19026591E+003                   -4.27402847E-004      52.77  <-- SCF
     22  -3.19024976E+003                   -5.04904918E-004      53.77  <-- SCF
     23  -3.19024761E+003                   -6.69915242E-005      54.86  <-- SCF
     24  -3.19024453E+003                   -9.62917852E-005      55.82  <-- SCF
     25  -3.19024667E+003                    6.69001414E-005      56.67  <-- SCF
     26  -3.19024988E+003                    1.00321269E-004      57.47  <-- SCF
     27  -3.19025546E+003                    1.74199105E-004      58.30  <-- SCF
     28  -3.19025999E+003                    1.41587666E-004      59.13  <-- SCF
     29  -3.19026259E+003                    8.13132614E-005      59.95  <-- SCF
     30  -3.19026525E+003                    8.32069285E-005      60.75  <-- SCF
     31  -3.19026683E+003                    4.93604353E-005      61.55  <-- SCF
     32  -3.19026906E+003                    6.95215744E-005      62.35  <-- SCF
     33  -3.19027057E+003                    4.73819210E-005      63.14  <-- SCF
     34  -3.19027142E+003                    2.63662924E-005      63.93  <-- SCF
     35  -3.19027236E+003                    2.94914302E-005      64.76  <-- SCF
     36  -3.19027314E+003                    2.44271199E-005      65.59  <-- SCF
     37  -3.19027380E+003                    2.05346903E-005      66.39  <-- SCF
     38  -3.19027418E+003                    1.18780671E-005      67.19  <-- SCF
     39  -3.19027445E+003                    8.49031631E-006      67.99  <-- SCF
     40  -3.19027473E+003                    8.62561228E-006      68.79  <-- SCF
     41  -3.19027508E+003                    1.08694933E-005      69.59  <-- SCF
     42  -3.19027535E+003                    8.63544048E-006      70.38  <-- SCF
     43  -3.19027547E+003                    3.55494098E-006      71.18  <-- SCF
     44  -3.19027557E+003                    3.35922790E-006      71.97  <-- SCF
     45  -3.19027568E+003                    3.20517519E-006      72.77  <-- SCF
     46  -3.19027573E+003                    1.76754149E-006      73.56  <-- SCF
     47  -3.19027580E+003                    2.01368693E-006      74.35  <-- SCF
     48  -3.19027582E+003                    7.43209313E-007      75.15  <-- SCF
     49  -3.19027584E+003                    7.25136301E-007      75.94  <-- SCF
------------------------------------------------------------------------ <-- SCF
 
Final energy =  -3190.275843428     eV
(energy not corrected for finite basis set)
 
(SEDC) Total Energy Correction : -0.744814E+00 eV

Dispersion corrected final energy* =  -3191.020656964     eV

Writing analysis data to Conf_0028.castep_bin

Writing model to Conf_0028.check

WARNING - nonlinear constraints cannot be used with LBFGS algorithm
        - consider setting geom_method=DELOCALIZED
 
        => Turning nonlinear constraints OFF
 
+---------------- MEMORY AND SCRATCH DISK ESTIMATES PER PROCESS --------------+
|                                                     Memory          Disk    |
| Model and support data                              550.1 MB         0.0 MB |
| Electronic energy minimisation requirements          31.8 MB         0.0 MB |
| Geometry minimisation requirements                   34.8 MB         0.0 MB |
|                                               ----------------------------- |
| Approx. total storage required per process          616.7 MB         0.0 MB |
|                                                                             |
| Requirements will fluctuate during execution and may exceed these estimates |
+-----------------------------------------------------------------------------+
 
 
 ************************************** Forces **************************************
 *                                                                                  *
 *                           Cartesian components (eV/A)                            *
 * -------------------------------------------------------------------------------- *
 *                         x                    y                    z              *
 *                                                                                  *
 * H               1      0.05368              0.16264             -0.21217         *
 * H               2     -0.23121              0.08095             -0.14967         *
 * H               3      0.00139             -0.02425             -0.03823         *
 * H               4     -0.03393             -0.04224             -0.04671         *
 * H               5     -0.15999              0.23070              0.07660         *
 * H               6      0.09941              0.27734              0.06145         *
 * H               7      0.02245             -0.03768              0.05082         *
 * H               8     -0.08616              0.08499              0.13920         *
 * H               9     -0.01915              0.05173             -0.10859         *
 * H              10      0.03767              0.12441             -0.10126         *
 * H              11      0.00368             -0.09893             -1.03627         *
 * H              12      0.06702              0.23315             -0.95246         *
 * H              13     -0.34575              0.23298             -0.87102         *
 * H              14     -0.58946              0.21315             -0.03736         *
 * H              15      0.32931              0.54722             -0.21735         *
 * H              16      0.01600              0.06626             -0.13434         *
 * H              17     -0.12310              0.00922             -0.11074         *
 * H              18     -0.03258             -0.00573             -0.16532         *
 * H              19      0.04409             -0.00130             -0.03189         *
 * H              20     -0.06078             -0.04421             -0.02194         *
 * C               1     -0.24732              0.87412              0.05798         *
 * C               2     -0.00451             -0.01323              0.03094         *
 * C               3     -0.49512              0.92963             -0.45939         *
 * C               4      0.11151             -0.39811             -0.32049         *
 * C               5     -0.05855              0.09916             -0.29484         *
 * C               6      0.09616             -0.20167              0.17634         *
 * C               7     -0.03667              0.16258              0.10827         *
 * N               1      1.25862             -3.00627              0.87914         *
 * O               1      0.75693              0.24935              1.37878         *
 * O               2     -0.48706              0.07521              1.60194         *
 * O               3      0.11319             -0.94401              1.41355         *
 * Si              1      0.00024              0.11286             -0.66498         *
 *                                                                                  *
 ************************************************************************************
 EXP precond LBFGS => estimated nearest neighbor distance :  1.629       A
 EXP precond LBFGS => estimated cutoff distance :  3.257       A
 doing test perturbation to get energy scale for EXP preconditioner
 
                           -------------------------------
                                     Cell Contents
                           -------------------------------
 
            xxxxxxxxxxxxxxxxxxxxxxxxxxxxxxxxxxxxxxxxxxxxxxxxxxxxxxxxxxxxxxxxx
            x  Element         Atom        Fractional coordinates of atoms  x
            x                 Number           u          v          w      x
            x---------------------------------------------------------------x
            x  H                 1         0.466966   0.380133   0.561184   x
            x  H                 2         0.592428   0.404471   0.554131   x
            x  H                 3         0.428706   0.493234   0.580248   x
            x  H                 4         0.552014   0.518358   0.572691   x
            x  H                 5         0.574939   0.369312   0.505171   x
            x  H                 6         0.447977   0.347383   0.511689   x
            x  H                 7         0.396274   0.426593   0.470539   x
            x  H                 8         0.470134   0.360762   0.458142   x
            x  H                 9         0.621851   0.433497   0.459833   x
            x  H                10         0.545774   0.500970   0.468912   x
            x  H                11         0.522089   0.397003   0.377556   x
            x  H                12         0.607881   0.523432   0.380638   x
            x  H                13         0.396285   0.512119   0.390865   x
            x  H                14         0.414106   0.461773   0.524211   x
            x  H                15         0.529985   0.483063   0.517612   x
            x  H                16         0.492947   0.409605   0.616475   x
            x  H                17         0.615528   0.434663   0.608753   x
            x  H                18         0.556611   0.485867   0.655401   x
            x  H                19         0.453905   0.521270   0.636836   x
            x  H                20         0.576244   0.547593   0.628289   x
            x  C                 1         0.515487   0.421891   0.555808   x
            x  C                 2         0.505995   0.476022   0.578971   x
            x  C                 3         0.497696   0.385985   0.503286   x
            x  C                 4         0.471848   0.406161   0.471549   x
            x  C                 5         0.546535   0.453443   0.457367   x
            x  C                 6         0.538340   0.452069   0.609784   x
            x  C                 7         0.530753   0.504611   0.633791   x
            x  N                 1         0.485174   0.446324   0.524282   x
            x  O                 1         0.608315   0.514592   0.401329   x
            x  O                 2         0.416482   0.501824   0.410510   x
            x  O                 3         0.525167   0.398001   0.398603   x
            x  Si                1         0.524056   0.467894   0.416029   x
            xxxxxxxxxxxxxxxxxxxxxxxxxxxxxxxxxxxxxxxxxxxxxxxxxxxxxxxxxxxxxxxxx
 
 
------------------------------------------------------------------------ <-- SCF
SCF loop      Energy                           Energy gain       Timer   <-- SCF
                                               per atom          (sec)   <-- SCF
------------------------------------------------------------------------ <-- SCF
Initial  -3.19260518E+003                                         77.98  <-- SCF
      1  -3.19025272E+003                   -7.35144930E-002      78.81  <-- SCF
      2  -3.19027726E+003                    7.66859336E-004      80.03  <-- SCF
      3  -3.19024846E+003                   -9.00006225E-004      81.06  <-- SCF
      4  -3.19026688E+003                    5.75524068E-004      82.07  <-- SCF
      5  -3.19026715E+003                    8.51020598E-006      82.87  <-- SCF
      6  -3.19026737E+003                    6.93806019E-006      83.63  <-- SCF
      7  -3.19026744E+003                    2.02998079E-006      84.40  <-- SCF
      8  -3.19026749E+003                    1.60699169E-006      85.17  <-- SCF
      9  -3.19026753E+003                    1.47753064E-006      85.94  <-- SCF
     10  -3.19026756E+003                    9.54112293E-007      86.71  <-- SCF
     11  -3.19026760E+003                    1.18653491E-006      87.48  <-- SCF
     12  -3.19026762E+003                    5.65387881E-007      88.26  <-- SCF
------------------------------------------------------------------------ <-- SCF
 
Final energy =  -3190.267620719     eV
(energy not corrected for finite basis set)
 
(SEDC) Total Energy Correction : -0.744499E+00 eV

Dispersion corrected final energy* =  -3191.012119886     eV
 
 ************************************** Forces **************************************
 *                                                                                  *
 *                           Cartesian components (eV/A)                            *
 * -------------------------------------------------------------------------------- *
 *                         x                    y                    z              *
 *                                                                                  *
 * H               1      0.00215              0.10030             -0.19609         *
 * H               2     -0.09155              0.03864             -0.14910         *
 * H               3     -0.09308              0.00515             -0.02956         *
 * H               4      0.02507              0.04490             -0.05852         *
 * H               5     -0.04847              0.20059              0.08910         *
 * H               6      0.05923              0.23402              0.05464         *
 * H               7     -0.01417             -0.02544              0.02708         *
 * H               8     -0.06976              0.08215              0.13587         *
 * H               9      0.11511              0.00896             -0.11232         *
 * H              10      0.03684              0.19582             -0.06931         *
 * H              11      0.00011             -0.11041             -1.04132         *
 * H              12      0.07369              0.22658             -0.95396         *
 * H              13     -0.33583              0.26474             -0.87285         *
 * H              14     -0.69915              0.24394             -0.02797         *
 * H              15      0.41120              0.62792             -0.24650         *
 * H              16     -0.03160              0.00284             -0.12146         *
 * H              17      0.01487             -0.03603             -0.11847         *
 * H              18     -0.00283             -0.03311             -0.11773         *
 * H              19     -0.06476              0.03277             -0.01585         *
 * H              20      0.00527              0.05063             -0.03460         *
 * C               1     -0.30137              0.89317              0.03260         *
 * C               2     -0.01696             -0.04456              0.04107         *
 * C               3     -0.55659              0.95144             -0.47714         *
 * C               4      0.08669             -0.43243             -0.30566         *
 * C               5     -0.11399              0.12558             -0.35027         *
 * C               6      0.04402             -0.18552              0.15489         *
 * C               7     -0.03613              0.12434              0.11522         *
 * N               1      1.19995             -3.10669              0.94356         *
 * O               1      0.88037              0.35742              1.33518         *
 * O               2     -0.60644              0.13464              1.56952         *
 * O               3      0.12759             -1.02212              1.35765         *
 * Si              1      0.00050              0.04979             -0.55771         *
 *                                                                                  *
 ************************************************************************************
 EXP precond LBFGS => estimated parameter mu :  2.658       eV/A**2
 LBFGS: finished iteration     0 with enthalpy= -3.19102066E+003 eV
  
 +-----------+-----------------+-----------------+------------+-----+ <-- LBFGS
 | Parameter |      value      |    tolerance    |    units   | OK? | <-- LBFGS
 +-----------+-----------------+-----------------+------------+-----+ <-- LBFGS
 |  dE/ion   |   0.000000E+000 |   2.000000E-005 |         eV | No  | <-- LBFGS
 |  |F|max   |   3.461458E+000 |   5.000000E-002 |       eV/A | No  | <-- LBFGS
 |  |dR|max  |   5.215471E-015 |   2.000000E-003 |          A | No  | <-- LBFGS
 +-----------+-----------------+-----------------+------------+-----+ <-- LBFGS
  

================================================================================
 Starting LBFGS iteration          1 ...
================================================================================
  
 +------------+-------------+-------------+-----------------+ <-- min LBFGS
 |    Step    |   lambda    |   F.delta'  |    enthalpy     | <-- min LBFGS
 +------------+-------------+-------------+-----------------+ <-- min LBFGS
 |  previous  |    0.000000 |    2.375173 |    -3191.020657 | <-- min LBFGS
 +------------+-------------+-------------+-----------------+ <-- min LBFGS
  

--------------------------------------------------------------------------------
 LBFGS: starting iteration         1 with trial guess (lambda=  1.000000)
--------------------------------------------------------------------------------
 
                           -------------------------------
                                     Cell Contents
                           -------------------------------
 
            xxxxxxxxxxxxxxxxxxxxxxxxxxxxxxxxxxxxxxxxxxxxxxxxxxxxxxxxxxxxxxxxx
            x  Element         Atom        Fractional coordinates of atoms  x
            x                 Number           u          v          w      x
            x---------------------------------------------------------------x
            x  H                 1         0.465547   0.380495   0.559854   x
            x  H                 2         0.590248   0.404638   0.552876   x
            x  H                 3         0.426855   0.492733   0.579066   x
            x  H                 4         0.550381   0.517883   0.571493   x
            x  H                 5         0.573141   0.370131   0.504254   x
            x  H                 6         0.446838   0.348321   0.510760   x
            x  H                 7         0.395306   0.425692   0.469766   x
            x  H                 8         0.468777   0.360248   0.457492   x
            x  H                 9         0.621774   0.433411   0.458946   x
            x  H                10         0.545721   0.501154   0.468051   x
            x  H                11         0.523383   0.390334   0.378464   x
            x  H                12         0.615181   0.525717   0.381815   x
            x  H                13         0.388198   0.513583   0.392884   x
            x  H                14         0.412209   0.459415   0.523526   x
            x  H                15         0.531787   0.481692   0.516717   x
            x  H                16         0.490987   0.409322   0.615058   x
            x  H                17         0.613395   0.434251   0.607364   x
            x  H                18         0.554361   0.485772   0.653887   x
            x  H                19         0.451723   0.521286   0.635511   x
            x  H                20         0.573973   0.547563   0.626972   x
            x  C                 1         0.513605   0.422731   0.554765   x
            x  C                 2         0.504263   0.475601   0.577834   x
            x  C                 3         0.495516   0.387136   0.502060   x
            x  C                 4         0.471097   0.405019   0.470474   x
            x  C                 5         0.546089   0.453318   0.456471   x
            x  C                 6         0.536578   0.451436   0.608616   x
            x  C                 7         0.528499   0.504748   0.632536   x
            x  N                 1         0.487555   0.440456   0.524028   x
            x  O                 1         0.616967   0.516534   0.404687   x
            x  O                 2         0.408948   0.502659   0.414747   x
            x  O                 3         0.526644   0.390305   0.401821   x
            x  Si                1         0.524416   0.467110   0.417043   x
            xxxxxxxxxxxxxxxxxxxxxxxxxxxxxxxxxxxxxxxxxxxxxxxxxxxxxxxxxxxxxxxxx
 
 
------------------------------------------------------------------------ <-- SCF
SCF loop      Energy                           Energy gain       Timer   <-- SCF
                                               per atom          (sec)   <-- SCF
------------------------------------------------------------------------ <-- SCF
Initial  -3.21529818E+003                                         89.60  <-- SCF
      1  -3.18703981E+003                   -8.83074126E-001      90.45  <-- SCF
      2  -3.19039250E+003                    1.04771497E-001      91.76  <-- SCF
      3  -3.18976313E+003                   -1.96678226E-002      92.96  <-- SCF
      4  -3.18988058E+003                    3.67026883E-003      94.00  <-- SCF
      5  -3.18991376E+003                    1.03708960E-003      95.22  <-- SCF
      6  -3.18991694E+003                    9.92232642E-005      96.24  <-- SCF
      7  -3.18991745E+003                    1.60247559E-005      97.15  <-- SCF
      8  -3.18991781E+003                    1.12335638E-005      98.01  <-- SCF
      9  -3.18991798E+003                    5.26855525E-006      98.83  <-- SCF
     10  -3.18991804E+003                    1.96669265E-006      99.61  <-- SCF
     11  -3.18991816E+003                    3.77345097E-006     100.42  <-- SCF
     12  -3.18991818E+003                    3.73574153E-007     101.19  <-- SCF
     13  -3.18991832E+003                    4.54009529E-006     101.97  <-- SCF
     14  -3.18991843E+003                    3.53469696E-006     102.74  <-- SCF
     15  -3.18991862E+003                    5.72233414E-006     103.52  <-- SCF
     16  -3.18991874E+003                    3.81845724E-006     104.29  <-- SCF
     17  -3.18991887E+003                    4.10563534E-006     105.07  <-- SCF
     18  -3.18991905E+003                    5.75602667E-006     105.85  <-- SCF
     19  -3.18991920E+003                    4.58585711E-006     106.63  <-- SCF
     20  -3.18991934E+003                    4.19869723E-006     107.42  <-- SCF
     21  -3.18991943E+003                    2.82787502E-006     108.21  <-- SCF
     22  -3.18991947E+003                    1.32315885E-006     109.00  <-- SCF
     23  -3.18991953E+003                    2.00284936E-006     109.81  <-- SCF
     24  -3.18991956E+003                    8.45232419E-007     110.64  <-- SCF
     25  -3.18991958E+003                    6.76408799E-007     111.43  <-- SCF
------------------------------------------------------------------------ <-- SCF
 
Final energy =  -3189.919581109     eV
(energy not corrected for finite basis set)
 
(SEDC) Total Energy Correction : -0.743673E+00 eV

Dispersion corrected final energy* =  -3190.663253884     eV
 
 ************************************** Forces **************************************
 *                                                                                  *
 *                           Cartesian components (eV/A)                            *
 * -------------------------------------------------------------------------------- *
 *                         x                    y                    z              *
 *                                                                                  *
 * H               1      0.10319              0.00211              0.14331         *
 * H               2     -0.01317             -0.06443              0.23538         *
 * H               3     -0.04094              0.03734             -0.04157         *
 * H               4      0.00993              0.08273             -0.02175         *
 * H               5     -0.19505             -0.08011             -0.17184         *
 * H               6      0.05510             -0.07350             -0.11209         *
 * H               7      0.06111             -0.00841             -0.09717         *
 * H               8     -0.00531             -0.44001             -0.16585         *
 * H               9     -0.00441              0.01821             -0.03216         *
 * H              10     -0.02315             -0.03514             -0.08709         *
 * H              11      0.14289             -0.14722              3.04165         *
 * H              12      0.14661             -0.46963              2.82908         *
 * H              13      0.66944             -0.56142              2.70897         *
 * H              14      1.66616             -0.58816              0.02817         *
 * H              15     -0.82251             -1.24387              0.47315         *
 * H              16     -0.11524             -0.16237              0.03506         *
 * H              17      0.17462             -0.09549             -0.00158         *
 * H              18      0.02776             -0.07960              0.12229         *
 * H              19     -0.08890              0.02145             -0.04602         *
 * H              20      0.05970              0.07459             -0.06843         *
 * C               1      0.43703             -1.20264              0.39423         *
 * C               2     -0.15181              0.46834              0.01192         *
 * C               3      0.62087             -1.32397              0.26519         *
 * C               4     -0.14616              1.01779              0.02228         *
 * C               5      0.12783             -0.22382              1.24890         *
 * C               6     -0.06228              0.22559              0.07454         *
 * C               7     -0.01973             -0.12277             -0.20039         *
 * N               1     -1.49455              3.71598             -1.05666         *
 * O               1     -1.09678             -0.32331             -2.49025         *
 * O               2      0.75322             -0.08229             -2.66301         *
 * O               3     -0.22553              1.37559             -2.48853         *
 * Si              1     -0.54996              0.28844             -1.88971         *
 *                                                                                  *
 ************************************************************************************
  
 +------------+-------------+-------------+-----------------+ <-- min LBFGS
 |    Step    |   lambda    |   F.delta'  |    enthalpy     | <-- min LBFGS
 +------------+-------------+-------------+-----------------+ <-- min LBFGS
 |  previous  |    0.000000 |    2.375173 |    -3191.020657 | <-- min LBFGS
 | trial step |    1.000000 |   -3.239642 |    -3190.663254 | <-- min LBFGS
 +------------+-------------+-------------+-----------------+ <-- min LBFGS
  

--------------------------------------------------------------------------------
 LBFGS: improving iteration         1 with line minimization (lambda=  0.423019)
--------------------------------------------------------------------------------
 
                           -------------------------------
                                     Cell Contents
                           -------------------------------
 
            xxxxxxxxxxxxxxxxxxxxxxxxxxxxxxxxxxxxxxxxxxxxxxxxxxxxxxxxxxxxxxxxx
            x  Element         Atom        Fractional coordinates of atoms  x
            x                 Number           u          v          w      x
            x---------------------------------------------------------------x
            x  H                 1         0.465750   0.379849   0.560433   x
            x  H                 2         0.591156   0.404125   0.553410   x
            x  H                 3         0.427261   0.492730   0.579566   x
            x  H                 4         0.550871   0.517912   0.572000   x
            x  H                 5         0.573783   0.369214   0.504580   x
            x  H                 6         0.446854   0.347325   0.511095   x
            x  H                 7         0.395178   0.425820   0.470005   x
            x  H                 8         0.468949   0.360095   0.457659   x
            x  H                 9         0.621550   0.433077   0.459250   x
            x  H                10         0.545285   0.500770   0.468340   x
            x  H                11         0.522118   0.393758   0.377736   x
            x  H                12         0.610661   0.524164   0.380931   x
            x  H                13         0.392178   0.512481   0.391513   x
            x  H                14         0.412629   0.460432   0.523722   x
            x  H                15         0.530245   0.482174   0.517033   x
            x  H                16         0.491544   0.409074   0.615708   x
            x  H                17         0.614339   0.434106   0.607995   x
            x  H                18         0.555218   0.485522   0.654613   x
            x  H                19         0.452348   0.521037   0.636119   x
            x  H                20         0.574891   0.547395   0.627571   x
            x  C                 1         0.514159   0.421848   0.555177   x
            x  C                 2         0.504712   0.475523   0.578308   x
            x  C                 3         0.496208   0.386039   0.502564   x
            x  C                 4         0.470922   0.405263   0.470887   x
            x  C                 5         0.545881   0.453034   0.456780   x
            x  C                 6         0.537111   0.451443   0.609120   x
            x  C                 7         0.529300   0.504398   0.633101   x
            x  N                 1         0.485594   0.443475   0.523976   x
            x  O                 1         0.611668   0.515161   0.402542   x
            x  O                 2         0.412622   0.501901   0.412094   x
            x  O                 3         0.525280   0.394323   0.399758   x
            x  Si                1         0.523694   0.467228   0.416250   x
            xxxxxxxxxxxxxxxxxxxxxxxxxxxxxxxxxxxxxxxxxxxxxxxxxxxxxxxxxxxxxxxxx
 
 
------------------------------------------------------------------------ <-- SCF
SCF loop      Energy                           Energy gain       Timer   <-- SCF
                                               per atom          (sec)   <-- SCF
------------------------------------------------------------------------ <-- SCF
Initial  -3.20307684E+003                                        112.80  <-- SCF
      1  -3.19024114E+003                   -4.01115441E-001     113.68  <-- SCF
      2  -3.19071352E+003                    1.47616996E-002     114.78  <-- SCF
      3  -3.19042571E+003                   -8.99407283E-003     115.80  <-- SCF
      4  -3.19052667E+003                    3.15523493E-003     116.88  <-- SCF
      5  -3.19055125E+003                    7.67934067E-004     117.98  <-- SCF
      6  -3.19055145E+003                    6.37752164E-006     118.85  <-- SCF
      7  -3.19055148E+003                    9.13171805E-007     119.62  <-- SCF
      8  -3.19055145E+003                   -8.05918573E-007     120.42  <-- SCF
------------------------------------------------------------------------ <-- SCF
 
Final energy =  -3190.551454031     eV
(energy not corrected for finite basis set)
 
(SEDC) Total Energy Correction : -0.744416E+00 eV

Dispersion corrected final energy* =  -3191.295870080     eV
 
 ************************************** Forces **************************************
 *                                                                                  *
 *                           Cartesian components (eV/A)                            *
 * -------------------------------------------------------------------------------- *
 *                         x                    y                    z              *
 *                                                                                  *
 * H               1      0.07599              0.09561             -0.07092         *
 * H               2     -0.14871              0.02105              0.00588         *
 * H               3     -0.01432             -0.00203             -0.02335         *
 * H               4     -0.01501              0.00829             -0.03073         *
 * H               5     -0.18648              0.10973             -0.01463         *
 * H               6      0.08361              0.13151              0.00265         *
 * H               7      0.04139             -0.02723             -0.00275         *
 * H               8     -0.05219             -0.12613              0.02088         *
 * H               9     -0.01117              0.03609             -0.06733         *
 * H              10      0.01466              0.05431             -0.08865         *
 * H              11      0.08047             -0.08129              1.02779         *
 * H              12      0.06908             -0.16379              0.96743         *
 * H              13      0.18937             -0.17117              0.95776         *
 * H              14      0.52986             -0.16902             -0.00777         *
 * H              15     -0.26586             -0.30491              0.12412         *
 * H              16     -0.03724             -0.03215             -0.05363         *
 * H              17      0.00070             -0.03767             -0.05875         *
 * H              18     -0.01855             -0.03881             -0.04268         *
 * H              19     -0.01239              0.00587             -0.02926         *
 * H              20     -0.00971              0.00347             -0.04035         *
 * C               1      0.01334              0.04691              0.12505         *
 * C               2     -0.06256              0.17736              0.03169         *
 * C               3     -0.03720              0.07506             -0.09561         *
 * C               4      0.01069              0.18501             -0.17440         *
 * C               5      0.00596             -0.02046              0.26066         *
 * C               6      0.03013             -0.02104              0.14365         *
 * C               7     -0.02715              0.03776             -0.01160         *
 * N               1      0.08704             -0.18973              0.07597         *
 * O               1     -0.10000              0.03657             -0.48765         *
 * O               2      0.04633              0.02318             -0.54377         *
 * O               3     -0.01127              0.14600             -0.69817         *
 * Si              1     -0.26882              0.19166             -1.20154         *
 *                                                                                  *
 ************************************************************************************
  
 +------------+-------------+-------------+-----------------+ <-- min LBFGS
 |    Step    |   lambda    |   F.delta'  |    enthalpy     | <-- min LBFGS
 +------------+-------------+-------------+-----------------+ <-- min LBFGS
 |  previous  |    0.000000 |    2.375173 |    -3191.020657 | <-- min LBFGS
 | trial step |    1.000000 |   -3.239642 |    -3190.663254 | <-- min LBFGS
 |  line step |    0.423019 |   -0.249811 |    -3191.295870 | <-- min LBFGS
 +------------+-------------+-------------+-----------------+ <-- min LBFGS
  
 LBFGS: finished iteration     1 with enthalpy= -3.19129587E+003 eV
  
 +-----------+-----------------+-----------------+------------+-----+ <-- LBFGS
 | Parameter |      value      |    tolerance    |    units   | OK? | <-- LBFGS
 +-----------+-----------------+-----------------+------------+-----+ <-- LBFGS
 |  dE/ion   |   8.600410E-003 |   2.000000E-005 |         eV | No  | <-- LBFGS
 |  |F|max   |   1.246077E+000 |   5.000000E-002 |       eV/A | No  | <-- LBFGS
 |  |dR|max  |   9.543117E-002 |   2.000000E-003 |          A | No  | <-- LBFGS
 +-----------+-----------------+-----------------+------------+-----+ <-- LBFGS
  

================================================================================
 Starting LBFGS iteration          2 ...
================================================================================
  
 +------------+-------------+-------------+-----------------+ <-- min LBFGS
 |    Step    |   lambda    |   F.delta'  |    enthalpy     | <-- min LBFGS
 +------------+-------------+-------------+-----------------+ <-- min LBFGS
 |  previous  |    0.000000 |    1.302206 |    -3191.295870 | <-- min LBFGS
 +------------+-------------+-------------+-----------------+ <-- min LBFGS
  

--------------------------------------------------------------------------------
 LBFGS: starting iteration         2 with trial guess (lambda=  1.000000)
--------------------------------------------------------------------------------
 
                           -------------------------------
                                     Cell Contents
                           -------------------------------
 
            xxxxxxxxxxxxxxxxxxxxxxxxxxxxxxxxxxxxxxxxxxxxxxxxxxxxxxxxxxxxxxxxx
            x  Element         Atom        Fractional coordinates of atoms  x
            x                 Number           u          v          w      x
            x---------------------------------------------------------------x
            x  H                 1         0.465904   0.380538   0.559868   x
            x  H                 2         0.589954   0.404539   0.552961   x
            x  H                 3         0.426576   0.492938   0.579044   x
            x  H                 4         0.550077   0.518119   0.571469   x
            x  H                 5         0.572700   0.370221   0.504089   x
            x  H                 6         0.447287   0.348442   0.510613   x
            x  H                 7         0.395572   0.425916   0.469500   x
            x  H                 8         0.468677   0.360160   0.457206   x
            x  H                 9         0.621538   0.433657   0.458711   x
            x  H                10         0.545562   0.501325   0.467804   x
            x  H                11         0.523762   0.391964   0.380310   x
            x  H                12         0.613341   0.523951   0.383856   x
            x  H                13         0.392727   0.511867   0.394541   x
            x  H                14         0.414810   0.459064   0.523444   x
            x  H                15         0.530621   0.480842   0.516820   x
            x  H                16         0.490472   0.409196   0.615023   x
            x  H                17         0.613195   0.434154   0.607315   x
            x  H                18         0.553831   0.485632   0.653780   x
            x  H                19         0.451127   0.521287   0.635374   x
            x  H                20         0.573526   0.547595   0.626818   x
            x  C                 1         0.513800   0.422454   0.554847   x
            x  C                 2         0.503907   0.475978   0.577844   x
            x  C                 3         0.495833   0.386957   0.501939   x
            x  C                 4         0.471094   0.405595   0.470196   x
            x  C                 5         0.545958   0.453466   0.456437   x
            x  C                 6         0.536217   0.451488   0.608635   x
            x  C                 7         0.527979   0.504715   0.632403   x
            x  N                 1         0.487326   0.441184   0.523884   x
            x  O                 1         0.614190   0.515432   0.404427   x
            x  O                 2         0.412517   0.501686   0.414072   x
            x  O                 3         0.526528   0.392689   0.401109   x
            x  Si                1         0.523355   0.467640   0.415497   x
            xxxxxxxxxxxxxxxxxxxxxxxxxxxxxxxxxxxxxxxxxxxxxxxxxxxxxxxxxxxxxxxxx
 
 
------------------------------------------------------------------------ <-- SCF
SCF loop      Energy                           Energy gain       Timer   <-- SCF
                                               per atom          (sec)   <-- SCF
------------------------------------------------------------------------ <-- SCF
Initial  -3.20711530E+003                                        121.77  <-- SCF
      1  -3.19015164E+003                   -5.30114401E-001     122.58  <-- SCF
      2  -3.19050222E+003                    1.09558590E-002     123.77  <-- SCF
      3  -3.19037714E+003                   -3.90891224E-003     124.82  <-- SCF
      4  -3.19047151E+003                    2.94895214E-003     125.84  <-- SCF
      5  -3.19047687E+003                    1.67675016E-004     126.98  <-- SCF
      6  -3.19047704E+003                    5.28586521E-006     127.94  <-- SCF
      7  -3.19047678E+003                   -8.05029141E-006     128.75  <-- SCF
      8  -3.19047643E+003                   -1.09867657E-005     129.64  <-- SCF
      9  -3.19047647E+003                    1.18352390E-006     130.41  <-- SCF
     10  -3.19047668E+003                    6.71918163E-006     131.17  <-- SCF
     11  -3.19047703E+003                    1.07866335E-005     131.97  <-- SCF
     12  -3.19047727E+003                    7.37654309E-006     132.76  <-- SCF
     13  -3.19047752E+003                    8.09318945E-006     133.53  <-- SCF
     14  -3.19047777E+003                    7.77202179E-006     134.30  <-- SCF
     15  -3.19047796E+003                    5.69574940E-006     135.08  <-- SCF
     16  -3.19047811E+003                    4.87865726E-006     135.86  <-- SCF
     17  -3.19047823E+003                    3.56089931E-006     136.63  <-- SCF
     18  -3.19047827E+003                    1.48933360E-006     137.42  <-- SCF
     19  -3.19047834E+003                    2.14399803E-006     138.20  <-- SCF
     20  -3.19047843E+003                    2.68394976E-006     138.98  <-- SCF
     21  -3.19047841E+003                   -4.22778792E-007     139.79  <-- SCF
     22  -3.19047849E+003                    2.36294228E-006     140.61  <-- SCF
     23  -3.19047849E+003                    1.15675011E-007     141.41  <-- SCF
     24  -3.19047854E+003                    1.35388952E-006     142.20  <-- SCF
------------------------------------------------------------------------ <-- SCF
 
Final energy =  -3190.478537102     eV
(energy not corrected for finite basis set)
 
(SEDC) Total Energy Correction : -0.746593E+00 eV

Dispersion corrected final energy* =  -3191.225130114     eV
 
 ************************************** Forces **************************************
 *                                                                                  *
 *                           Cartesian components (eV/A)                            *
 * -------------------------------------------------------------------------------- *
 *                         x                    y                    z              *
 *                                                                                  *
 * H               1     -0.04081             -0.13252              0.14757         *
 * H               2      0.18611             -0.09966              0.18998         *
 * H               3     -0.08317              0.04166             -0.05009         *
 * H               4      0.03687              0.09950             -0.02212         *
[...]
 * H              18     -0.00210             -0.00148             -0.00654         *
 * H              19     -0.00276              0.00251              0.00069         *
 * H              20      0.00072             -0.00197              0.00192         *
 * C               1     -0.00366             -0.00598             -0.00034         *
 * C               2      0.00119              0.00464              0.00163         *
 * C               3     -0.00113              0.00304              0.00188         *
 * C               4     -0.00616             -0.00020             -0.00211         *
 * C               5     -0.00185              0.00709              0.00083         *
 * C               6     -0.00438             -0.00104             -0.00328         *
 * C               7      0.00581              0.00130              0.00436         *
 * N               1     -0.00028              0.00002              0.00092         *
 * O               1     -0.00262             -0.00337              0.00391         *
 * O               2      0.00396              0.00376              0.00525         *
 * O               3     -0.00383              0.00439              0.00428         *
 * Si              1     -0.00021              0.00186             -0.00040         *
 *                                                                                  *
 ************************************************************************************
 
 Pseudo atomic calculation performed for H 1s1
 
 Converged in 13 iterations to a total energy of -12.4790 eV
 
 Pseudo atomic calculation performed for C 2s2 2p2
 
 Converged in 17 iterations to a total energy of -148.5208 eV
 
 Pseudo atomic calculation performed for N 2s2 2p3
 
 Converged in 21 iterations to a total energy of -268.1820 eV
 
 Pseudo atomic calculation performed for O 2s2 2p4
 
 Converged in 23 iterations to a total energy of -432.6536 eV
 
 Pseudo atomic calculation performed for Si 3s2 3p2
 
 Converged in 11 iterations to a total energy of -165.0683 eV
Charge spilling parameter for spin component 1 = 1.54%
 
            Orbital Populations       
     Ion    Atom   Orbital             Charge
  -------------------------------------------
      H     1      S                    0.689
      H     2      S                    0.689
      H     3      S                    0.728
      H     4      S                    0.730
      H     5      S                    0.690
      H     6      S                    0.684
      H     7      S                    0.722
      H     8      S                    0.679
      H     9      S                    0.725
      H    10      S                    0.764
      H    11      S                    0.462
      H    12      S                    0.461
      H    13      S                    0.464
      H    14      S                    0.510
      H    15      S                    0.517
      H    16      S                    0.725
      H    17      S                    0.729
      H    18      S                    0.698
      H    19      S                    0.727
      H    20      S                    0.730
      C     1      S                    1.300
      C     1      Px                   1.231
      C     1      Py                   1.117
      C     1      Pz                   0.755
      C     2      S                    1.299
      C     2      Px                   1.196
      C     2      Py                   1.048
      C     2      Pz                   0.982
      C     3      S                    1.305
      C     3      Px                   1.256
      C     3      Py                   0.922
      C     3      Pz                   0.921
      C     4      S                    1.297
      C     4      Px                   1.116
      C     4      Py                   1.148
      C     4      Pz                   0.981
      C     5      S                    1.400
      C     5      Px                   1.131
      C     5      Py                   1.128
      C     5      Pz                   1.297
      C     6      S                    1.305
      C     6      Px                   1.186
      C     6      Py                   1.098
      C     6      Pz                   0.923
      C     7      S                    1.400
      C     7      Px                   1.201
      C     7      Py                   1.083
      C     7      Pz                   1.111
      N     1      S                    1.583
      N     1      Px                   1.426
      N     1      Py                   1.349
      N     1      Pz                   1.268
      O     1      S                    1.852
      O     1      Px                   1.803
      O     1      Py                   1.836
      O     1      Pz                   1.603
      O     2      S                    1.855
      O     2      Px                   1.711
      O     2      Py                   1.846
      O     2      Pz                   1.688
      O     3      S                    1.853
      O     3      Px                   1.907
      O     3      Py                   1.754
      O     3      Pz                   1.586
     Si     1      S                    0.705
     Si     1      Px                   0.335
     Si     1      Py                   0.330
     Si     1      Pz                   0.453
  -------------------------------------------
                           Total:      74.000
  -------------------------------------------
 
     Atomic Populations (Mulliken)
     -----------------------------
Species          Ion     s       p       d       f      Total   Charge (e)
==========================================================================
  H               1     0.689   0.000   0.000   0.000   0.689     0.311
  H               2     0.689   0.000   0.000   0.000   0.689     0.311
  H               3     0.728   0.000   0.000   0.000   0.728     0.272
  H               4     0.730   0.000   0.000   0.000   0.730     0.270
  H               5     0.690   0.000   0.000   0.000   0.690     0.310
  H               6     0.684   0.000   0.000   0.000   0.684     0.316
  H               7     0.722   0.000   0.000   0.000   0.722     0.278
  H               8     0.679   0.000   0.000   0.000   0.679     0.321
  H               9     0.725   0.000   0.000   0.000   0.725     0.275
  H              10     0.764   0.000   0.000   0.000   0.764     0.236
  H              11     0.462   0.000   0.000   0.000   0.462     0.538
  H              12     0.461   0.000   0.000   0.000   0.461     0.539
  H              13     0.464   0.000   0.000   0.000   0.464     0.536
  H              14     0.510   0.000   0.000   0.000   0.510     0.490
  H              15     0.517   0.000   0.000   0.000   0.517     0.483
  H              16     0.725   0.000   0.000   0.000   0.725     0.275
  H              17     0.729   0.000   0.000   0.000   0.729     0.271
  H              18     0.698   0.000   0.000   0.000   0.698     0.302
  H              19     0.727   0.000   0.000   0.000   0.727     0.273
  H              20     0.730   0.000   0.000   0.000   0.730     0.270
  C               1     1.300   3.103   0.000   0.000   4.403    -0.403
  C               2     1.299   3.226   0.000   0.000   4.525    -0.525
  C               3     1.305   3.099   0.000   0.000   4.404    -0.404
  C               4     1.297   3.245   0.000   0.000   4.542    -0.542
  C               5     1.400   3.557   0.000   0.000   4.957    -0.957
  C               6     1.305   3.206   0.000   0.000   4.511    -0.511
  C               7     1.400   3.395   0.000   0.000   4.794    -0.794
  N               1     1.583   4.043   0.000   0.000   5.626    -0.626
  O               1     1.852   5.242   0.000   0.000   7.094    -1.094
  O               2     1.855   5.245   0.000   0.000   7.099    -1.099
  O               3     1.853   5.246   0.000   0.000   7.099    -1.099
  Si              1     0.705   1.118   0.000   0.000   1.823     2.177
==========================================================================
 
                 Bond                   Population      Length (A)
======================================================================
              H 12 -- O 1                    0.53        0.96727
              H 13 -- O 2                    0.53        0.96841
              H 11 -- O 3                    0.53        0.96848
              H 14 -- N 1                    0.67        1.03006
              H 15 -- N 1                    0.69        1.03008
              H 2  -- C 1                    0.85        1.09763
              H 18 -- C 7                    0.81        1.09777
              H 1  -- C 1                    0.86        1.09841
              H 6  -- C 3                    0.85        1.09862
              H 19 -- C 7                    0.81        1.09891
              H 5  -- C 3                    0.85        1.09931
              H 20 -- C 7                    0.81        1.09961
              H 8  -- C 4                    0.84        1.10027
              H 16 -- C 6                    0.84        1.10186
              H 17 -- C 6                    0.84        1.10187
              H 9  -- C 5                    0.82        1.10227
              H 7  -- C 4                    0.84        1.10242
              H 4  -- C 2                    0.84        1.10255
              H 3  -- C 2                    0.84        1.10258
              H 10 -- C 5                    0.83        1.10374
               C 1 -- N 1                    0.51        1.51335
               C 3 -- N 1                    0.50        1.51415
               C 1 -- C 2                    0.71        1.51622
               C 3 -- C 4                    0.71        1.51767
               C 6 -- C 7                    0.65        1.52619
               C 4 -- C 5                    0.66        1.53497
               C 2 -- C 6                    0.68        1.53583
               O 1 -- Si 1                   0.51        1.64064
               O 3 -- Si 1                   0.50        1.64805
               O 2 -- Si 1                   0.49        1.64938
              H 14 -- H 15                  -0.11        1.64952
              H 7  -- H 8                   -0.09        1.75869
              H 16 -- H 17                  -0.12        1.76691
              H 18 -- H 19                  -0.10        1.77533
              H 1  -- H 2                   -0.11        1.77768
              H 18 -- H 20                  -0.10        1.77797
              H 3  -- H 4                   -0.12        1.77871
              H 9  -- H 10                  -0.10        1.77912
              H 19 -- H 20                  -0.10        1.77982
              H 5  -- H 6                   -0.10        1.78977
               C 5 -- Si 1                   0.60        1.87931
              H 15 -- C 3                   -0.12        2.08418
              H 14 -- C 3                   -0.12        2.08942
              H 6  -- N 1                   -0.11        2.09747
              H 1  -- N 1                   -0.11        2.09772
              H 5  -- N 1                   -0.11        2.09791
              H 2  -- N 1                   -0.11        2.09863
              H 14 -- C 1                   -0.12        2.09965
              H 15 -- C 1                   -0.12        2.10640
              H 8  -- C 3                   -0.14        2.11541
              H 7  -- C 3                   -0.14        2.15524
              H 4  -- C 1                   -0.14        2.15981
              H 3  -- C 1                   -0.14        2.16030
              H 16 -- C 7                   -0.13        2.16119
              H 17 -- C 7                   -0.13        2.16145
              H 17 -- C 2                   -0.13        2.16249
              H 16 -- C 2                   -0.13        2.16457
              H 8  -- C 5                   -0.12        2.16466
              H 18 -- C 6                   -0.12        2.16680
              H 4  -- C 6                   -0.12        2.16821
              H 3  -- C 6                   -0.12        2.16919
              H 2  -- C 2                   -0.12        2.17255
              H 1  -- C 2                   -0.12        2.17584
              H 5  -- C 4                   -0.12        2.17794
              H 19 -- C 6                   -0.12        2.18017
              H 20 -- C 6                   -0.12        2.18021
              H 9  -- C 4                   -0.11        2.18032
              H 7  -- C 5                   -0.13        2.18153
              H 6  -- C 4                   -0.12        2.19050
              H 10 -- C 4                   -0.11        2.20466
              H 10 -- H 15                  -0.02        2.20559
              H 13 -- Si 1                  -0.13        2.30025
              H 12 -- Si 1                  -0.13        2.31085
              H 11 -- Si 1                  -0.13        2.31265
              H 1  -- H 6                   -0.02        2.36777
              H 6  -- H 14                  -0.03        2.39668
              H 2  -- H 15                  -0.04        2.40331
              H 2  -- H 5                   -0.02        2.40603
              H 5  -- H 15                  -0.03        2.40800
              H 1  -- H 14                  -0.03        2.43789
              H 9  -- Si 1                  -0.12        2.44431
              H 6  -- H 8                   -0.03        2.45877
              H 10 -- Si 1                  -0.12        2.46166
              H 17 -- H 18                  -0.03        2.48823
              H 16 -- H 18                  -0.03        2.48992
              H 2  -- H 17                  -0.01        2.49542
               C 1 -- C 6                   -0.15        2.50076
              H 1  -- H 3                   -0.04        2.50702
               C 4 -- N 1                   -0.13        2.50810
              H 4  -- H 17                  -0.03        2.51167
              H 3  -- H 16                  -0.03        2.51309
              H 5  -- H 8                   -0.03        2.51684
               C 1 -- C 3                   -0.14        2.51882
              H 6  -- H 7                   -0.03        2.51989
              H 16 -- H 19                  -0.03        2.52231
              H 17 -- H 20                  -0.03        2.52576
              H 7  -- H 14                  -0.00        2.52830
              H 2  -- H 4                   -0.03        2.53399
               C 2 -- N 1                   -0.13        2.53518
              H 7  -- H 10                  -0.03        2.53668
               C 2 -- C 7                   -0.15        2.54821
              H 1  -- H 16                  -0.01        2.55067
              H 8  -- H 9                   -0.02        2.55375
              H 5  -- H 9                   -0.01        2.55939
               C 3 -- C 5                   -0.16        2.56311
              H 3  -- H 14                  -0.00        2.57747
              H 4  -- H 15                  -0.00        2.59346
              H 4  -- H 20                  -0.01        2.59976
              H 3  -- H 19                  -0.01        2.61127
              H 8  -- O 3                    0.00        2.61877
              H 1  -- C 3                   -0.04        2.65869
              H 15 -- C 4                   -0.03        2.67562
              H 5  -- C 1                   -0.04        2.67874
              H 6  -- C 1                   -0.04        2.69562
              H 15 -- C 5                   -0.01        2.69626
              H 14 -- C 4                   -0.03        2.71055
              H 2  -- C 3                   -0.04        2.71194
              H 17 -- C 1                   -0.04        2.71395
              H 16 -- C 1                   -0.04        2.71975
              H 14 -- C 2                   -0.03        2.72715
               O 2 -- O 3                   -0.08        2.73892
              H 2  -- C 6                   -0.04        2.74478
               O 1 -- O 2                   -0.08        2.75582
               O 1 -- O 3                   -0.07        2.75722
              H 7  -- N 1                   -0.03        2.75799
              H 4  -- N 1                   -0.02        2.77113
               C 5 -- O 3                   -0.10        2.77507
              H 9  -- C 3                   -0.05        2.77685
              H 15 -- C 2                   -0.02        2.78149
              H 4  -- C 7                   -0.04        2.78239
              H 3  -- C 7                   -0.04        2.78674
              H 1  -- C 6                   -0.03        2.78896
               C 5 -- O 2                   -0.10        2.79828
              H 5  -- C 5                   -0.04        2.79865
              H 3  -- N 1                   -0.02        2.80963
               C 4 -- Si 1                  -0.16        2.81613
              H 20 -- C 2                   -0.04        2.81648
              H 19 -- C 2                   -0.04        2.82231
               C 5 -- O 1                   -0.09        2.83950
              H 10 -- N 1                   -0.02        2.86739
              H 7  -- O 2                   -0.00        2.89026
              H 8  -- Si 1                  -0.07        2.91340
              H 10 -- C 3                   -0.02        2.91686
              H 1  -- H 5                   -0.00        2.92320
              H 9  -- H 15                   0.00        2.93696
              H 6  -- H 15                   0.03        2.95138
              H 5  -- H 14                   0.03        2.95548
              H 2  -- H 14                   0.03        2.96263
              H 1  -- H 15                   0.03        2.96588
              H 9  -- O 1                   -0.01        2.98735
              H 10 -- O 2                   -0.00        2.99898
======================================================================
 
 
     Hirshfeld Analysis
     ------------------
Species   Ion     Hirshfeld Charge (e)
======================================
  H        1                 0.07
  H        2                 0.07
  H        3                 0.05
  H        4                 0.05
  H        5                 0.07
  H        6                 0.07
  H        7                 0.05
  H        8                 0.06
  H        9                 0.05
  H       10                 0.04
  H       11                 0.17
  H       12                 0.18
  H       13                 0.17
  H       14                 0.18
  H       15                 0.17
  H       16                 0.05
  H       17                 0.04
  H       18                 0.06
  H       19                 0.05
  H       20                 0.04
  C        1                 0.01
  C        2                -0.06
  C        3                 0.01
  C        4                -0.06
  C        5                -0.15
  C        6                -0.05
  C        7                -0.10
  N        1                 0.03
  O        1                -0.28
  O        2                -0.29
  O        3                -0.28
  Si       1                 0.48
======================================
 

Writing analysis data to Conf_0028.castep_bin

Writing model to Conf_0028.check
 
 A BibTeX formatted list of references used in this run has been written to 
 Conf_0028.bib
 
Initialisation time =     25.19 s
Calculation time    =    552.85 s
Finalisation time   =      1.11 s
Total time          =    579.15 s
Peak Memory Use     = 7915492 kB
 
Overall parallel efficiency rating: Satisfactory (66%)
 
Data was distributed by:-
G-vector (48-way); efficiency rating: Satisfactory (66%)
 
Parallel notes:
1) Calculation only took 578.1 s, so efficiency estimates may be inaccurate.
High Water Mark     = 1761872 kB
