 Job started on host drago31060177.mgmt.cc.csic.es
 at Sun Mar 31 01:40:37 2024

 +-------------------------------------------------+
 |                                                 |
 |      CCC   AA    SSS  TTTTT  EEEEE  PPPP        |
 |     C     A  A  S       T    E      P   P       |
 |     C     AAAA   SS     T    EEE    PPPP        |
 |     C     A  A     S    T    E      P           |
 |      CCC  A  A  SSS     T    EEEEE  P           |
 |                                                 |
 +-------------------------------------------------+
 |                                                 |
 | Materials Studio CASTEP version 2024            |
 | Ab Initio Total Energy Program                  |
 |                                                 |
 | Authors:                                        |
 | M. Segall, M. Probert, C. Pickard, P. Hasnip,   |
 | S. Clark, K. Refson, J. R. Yates,               |
 | A. Bartok-Partay, M. Payne                      |
 |                                                 |
 | Contributors:                                   |
 | P. Lindan, P. Haynes, J. White, V. Milman,      |
 | N. Govind, M. Gibson, P. Tulip, V. Cocula,      |
 | B. Montanari, D. Quigley, M. Glover,            |
 | L. Bernasconi, A. Perlov, M. Plummer,           |
 | E. McNellis, J. Meyer, J. Gale, D. Jochym       |
 | J. Aarons, B. Walker, R. Gillen, D. Jones       |
 | T. Green, I. J. Bush, C. J. Armstrong,          |
 | E. J. Higgins, E. L. Brown, M. S. McFly,        |
 | J. Wilkins, B-C. Shih, P. J. P. Byrne,          |
 | R. J. Maurer, J. C. Womack, J. Dziedzic,        |
 | L. LeBlanc, T. K. Stenczel, J. Kermode,         |
 | S. Sturniolo, B. Shi, B. Durham, M. Evans,      |
 | M. J. Smith, A. Tamerus, Z. Hawkhead,           |
 | V. Ravindran, T. Hollins, S. A. Joyce,          |
 | R. T. Strong, A. M. Reilly                      |
 |                                                 |
 | Copyright (c) 2000 - 2023                       |
 |                                                 |
 | Please cite                                     |
 |                                                 |
 |     "First principles methods using CASTEP"     |
 |                                                 |
 |         Zeitschrift fuer Kristallographie       |
 |           220(5-6) pp. 567-570 (2005)           |
 |                                                 |
 | S. J. Clark, M. D. Segall, C. J. Pickard,       |
 | P. J. Hasnip, M. J. Probert, K. Refson,         |
 | M. C. Payne                                     |
 |                                                 |
 |       in all publications arising from          |
 |              your use of CASTEP                 |
 |                                                 |
 +-------------------------------------------------+
 |                                                 |
 |              http://www.castep.org              |
 |                                                 |
 +-------------------------------------------------+
 
 
 This version was compiled for x86_64-rhel7-intel19.0 on Oct 24 2023
 Code version:    a9f326b
 Intel(R) Math Kernel Library Version 2019.0.4 
 Fundamental constants values: CODATA 2018
 
License checkout of MS_castep successful
 
 
 Atomic calculation performed for H: 1s1
 
 Converged in 41 iterations to an ae energy of -12.488 eV
 
 Identity difference: 2.63E-05
 
   ============================================================                
   | Pseudopotential Report - Date of generation 31-03-2024   |                
   ------------------------------------------------------------                
   | Element: H Ionic charge:  1.00 Level of theory: PBE      |                
   | Atomic Solver: Koelling-Harmon                           |                
   |                                                          |                
   |               Reference Electronic Structure             |                
   |         Orbital         Occupation         Energy        |                
   |            1s              1.000           -0.239        |                
   |                                                          |                
   |                 Pseudopotential Definition               |                
   |        Beta     l      e      Rc     scheme   norm       |                
   |          1      0   -0.239   0.599     qc      0         |                
   |          2      0    0.250   0.599     qc      0         |                
   |         loc     1    0.000   0.599     pn      0         |                
   |                                                          |                
   | Augmentation charge Rinner = 0.421                       |                
   | No partial core correction                               |                
   ------------------------------------------------------------                
   | "1|0.6|9|10|15|10UU(qc=8)[]"                             |                
   ------------------------------------------------------------                
   |      Author: Chris J. Pickard, Cambridge University      |                
   ============================================================                
 
 Doing a self consistent calculation for the test configuration
 
 Atomic calculation performed for H: 1s1
 
 Converged in 41 iterations to an ae energy of -12.488 eV
 
 ---------------------------------------
 AE eigenvalue nl 10 =       -0.23860176
 ---------------------------------------
 PS eigenvalue nl 10 =       -0.23857601
 ---------------------------------------
 Maximum eigenvalue error:   2.57E-05
 
 Derived cutoff energies: C=   1 M=   6 F=  10 E=  20
 
 Checking for ghost states up to   1.51185 Ha
 
 No Ghost States Identified
 
 ***************************************
 
 Atomic calculation performed for C: 1s2 2s2 2p2
 
 Converged in 54 iterations to an ae energy of -1027.632 eV
 
 Identity difference: 2.37E-04
 
   ============================================================                
   | Pseudopotential Report - Date of generation 31-03-2024   |                
   ------------------------------------------------------------                
   | Element: C Ionic charge:  4.00 Level of theory: PBE      |                
   | Atomic Solver: Koelling-Harmon                           |                
   |                                                          |                
   |               Reference Electronic Structure             |                
   |         Orbital         Occupation         Energy        |                
   |            2s              2.000           -0.505        |                
   |            2p              2.000           -0.194        |                
   |                                                          |                
   |                 Pseudopotential Definition               |                
   |        Beta     l      e      Rc     scheme   norm       |                
   |          1      0   -0.505   1.395     qc      0         |                
   |          2      0    0.250   1.395     qc      0         |                
   |          3      1   -0.194   1.395     qc      0         |                
   |          4      1    0.250   1.395     qc      0         |                
   |         loc     2    0.000   1.395     pn      0         |                
   |                                                          |                
   | Augmentation charge Rinner = 0.983                       |                
   | Partial core correction Rc = 0.983                       |                
   ------------------------------------------------------------                
   | "2|1.4|11|12|14.7|20UU:21UU(qc=7)[]"                     |                
   ------------------------------------------------------------                
   |      Author: Chris J. Pickard, Cambridge University      |                
   ============================================================                
 
 Doing a self consistent calculation for the test configuration
 
 Atomic calculation performed for C: 1s2 2s2 2p2
 
 Converged in 54 iterations to an ae energy of -1027.632 eV
 
 ---------------------------------------
 AE eigenvalue nl 10 =      -10.04653081
 AE eigenvalue nl 20 =       -0.50533429
 AE eigenvalue nl 21 =       -0.19423807
 ---------------------------------------
 PS eigenvalue nl 20 =       -0.50531853
 PS eigenvalue nl 21 =       -0.19422214
 ---------------------------------------
 Maximum eigenvalue error:   1.59E-05
 
 Derived cutoff energies: C=   6 M=  10 F=  12 E=  16
 
 Checking for ghost states up to   1.47183 Ha
 
 No Ghost States Identified
 
 ***************************************
 
 Atomic calculation performed for N: 1s2 2s2 2p3
 
 Converged in 55 iterations to an ae energy of -1481.742 eV
 
 Identity difference: 2.27E-04
 
   ============================================================                
   | Pseudopotential Report - Date of generation 31-03-2024   |                
   ------------------------------------------------------------                
   | Element: N Ionic charge:  5.00 Level of theory: PBE      |                
   | Atomic Solver: Koelling-Harmon                           |                
   |                                                          |                
   |               Reference Electronic Structure             |                
   |         Orbital         Occupation         Energy        |                
   |            2s              2.000           -0.683        |                
   |            2p              3.000           -0.261        |                
   |                                                          |                
   |                 Pseudopotential Definition               |                
   |        Beta     l      e      Rc     scheme   norm       |                
   |          1      0   -0.683   1.100     qc      0         |                
   |          2      0    0.250   1.100     qc      0         |                
   |          3      1   -0.261   1.100     qc      0         |                
   |          4      1    0.250   1.100     qc      0         |                
   |         loc     2    0.000   1.100     pn      0         |                
   |                                                          |                
   | Augmentation charge Rinner = 0.769                       |                
   | Partial core correction Rc = 0.769                       |                
   ------------------------------------------------------------                
   | "2|1.1|12|16|19|20UU:21UU(qc=7)[]"                       |                
   ------------------------------------------------------------                
   |      Author: Chris J. Pickard, Cambridge University      |                
   ============================================================                
 
 Doing a self consistent calculation for the test configuration
 
 Atomic calculation performed for N: 1s2 2s2 2p3
 
 Converged in 55 iterations to an ae energy of -1481.742 eV
 
 ---------------------------------------
 AE eigenvalue nl 10 =      -14.13820921
 AE eigenvalue nl 20 =       -0.68290611
 AE eigenvalue nl 21 =       -0.26054797
 ---------------------------------------
 PS eigenvalue nl 20 =       -0.68291221
 PS eigenvalue nl 21 =       -0.26051708
 ---------------------------------------
 Maximum eigenvalue error:   3.09E-05
 
 Derived cutoff energies: C=  10 M=  15 F=  18 E=  23
 
 Checking for ghost states up to   1.48495 Ha
 
 No Ghost States Identified
 
 ***************************************
 
 Atomic calculation performed for O: 1s2 2s2 2p4
 
 Converged in 61 iterations to an ae energy of -2040.902 eV
 
 Identity difference: 4.10E-04
 
   ============================================================                
   | Pseudopotential Report - Date of generation 31-03-2024   |                
   ------------------------------------------------------------                
   | Element: O Ionic charge:  6.00 Level of theory: PBE      |                
   | Atomic Solver: Koelling-Harmon                           |                
   |                                                          |                
   |               Reference Electronic Structure             |                
   |         Orbital         Occupation         Energy        |                
   |            2s              2.000           -0.881        |                
   |            2p              4.000           -0.332        |                
   |                                                          |                
   |                 Pseudopotential Definition               |                
   |        Beta     l      e      Rc     scheme   norm       |                
   |          1      0   -0.881   1.100     qc      0         |                
   |          2      0    0.250   1.100     qc      0         |                
   |          3      1   -0.332   1.100     qc      0         |                
   |          4      1    0.250   1.100     qc      0         |                
   |         loc     2    0.000   1.100     pn      0         |                
   |                                                          |                
   | Augmentation charge Rinner = 0.769                       |                
   | Partial core correction Rc = 0.769                       |                
   ------------------------------------------------------------                
   | "2|1.1|14|18|21|20UU:21UU(qc=7)[]"                       |                
   ------------------------------------------------------------                
   |      Author: Chris J. Pickard, Cambridge University      |                
   ============================================================                
 
 Doing a self consistent calculation for the test configuration
 
 Atomic calculation performed for O: 1s2 2s2 2p4
 
 Converged in 61 iterations to an ae energy of -2040.902 eV
 
 ---------------------------------------
 AE eigenvalue nl 10 =      -18.91475256
 AE eigenvalue nl 20 =       -0.88057101
 AE eigenvalue nl 21 =       -0.33186952
 ---------------------------------------
 PS eigenvalue nl 20 =       -0.88059206
 PS eigenvalue nl 21 =       -0.33182157
 ---------------------------------------
 Maximum eigenvalue error:   4.80E-05
 
 Derived cutoff energies: C=  14 M=  17 F=  20 E=  22
 
 Checking for ghost states up to   1.49452 Ha
 
 No Ghost States Identified
 
 ***************************************
 
 Atomic calculation performed for Si: 1s2 2s2 2p6 3s2 3p2
 
 Converged in 54 iterations to an ae energy of -7886.857 eV
 
 Identity difference: 1.35E-04
 
   ============================================================                
   | Pseudopotential Report - Date of generation 31-03-2024   |                
   ------------------------------------------------------------                
   | Element: Si Ionic charge:  4.00 Level of theory: PBE     |                
   | Atomic Solver: Koelling-Harmon                           |                
   |                                                          |                
   |               Reference Electronic Structure             |                
   |         Orbital         Occupation         Energy        |                
   |            3s              2.000           -0.397        |                
   |            3p              2.000           -0.150        |                
   |                                                          |                
   |                 Pseudopotential Definition               |                
   |        Beta     l      e      Rc     scheme   norm       |                
   |          1      0   -0.397   1.797     qc      0         |                
   |          2      0    0.250   1.797     qc      0         |                
   |          3      1   -0.150   1.797     qc      0         |                
   |          4      1    0.250   1.797     qc      0         |                
   |          5      2    0.000   1.797     qc      0         |                
   |          6      2    0.250   1.797     qc      0         |                
   |         loc     3    0.000   1.797     pn      0         |                
   |                                                          |                
   | Augmentation charge Rinner = 1.255                       |                
   | Partial core correction Rc = 1.255                       |                
   ------------------------------------------------------------                
   | "3|1.8|3.6|5|7|30UU:31UU:32UU[]"                         |                
   ------------------------------------------------------------                
   |      Author: Chris J. Pickard, Cambridge University      |                
   ============================================================                
 
 Doing a self consistent calculation for the test configuration
 
 Atomic calculation performed for Si: 1s2 2s2 2p6 3s2 3p2
 
 Converged in 54 iterations to an ae energy of -7886.857 eV
 
 ---------------------------------------
 AE eigenvalue nl 10 =      -65.63192903
 AE eigenvalue nl 20 =       -5.12654326
 AE eigenvalue nl 21 =       -3.51173659
 AE eigenvalue nl 30 =       -0.39736430
 AE eigenvalue nl 31 =       -0.14998156
 ---------------------------------------
 PS eigenvalue nl 30 =       -0.39734922
 PS eigenvalue nl 31 =       -0.14996719
 ---------------------------------------
 Maximum eigenvalue error:   1.51E-05
 
 Derived cutoff energies: C=   1 M=   3 F=   6 E=   6
 
 Checking for ghost states up to   1.41161 Ha
 
 No Ghost States Identified
 
 ***************************************
 
 Pseudo atomic calculation performed for H 1s1
 
 Converged in 13 iterations to a total energy of -12.4790 eV
 
 Pseudo atomic calculation performed for C 2s2 2p2
 
 Converged in 17 iterations to a total energy of -148.5208 eV
 
 Pseudo atomic calculation performed for N 2s2 2p3
 
 Converged in 21 iterations to a total energy of -268.1820 eV
 
 Pseudo atomic calculation performed for O 2s2 2p4
 
 Converged in 23 iterations to a total energy of -432.6536 eV
 
 Pseudo atomic calculation performed for Si 3s2 3p2
 
 Converged in 11 iterations to a total energy of -165.0683 eV
 Calculation parallelised over 48 processes.
 Data is distributed by G-vector(48-way)

 ************************************ Title ************************************
 CASTEP calculation from BIOVIA Materials Studio 2024

 ***************************** General Parameters ******************************
  
 output verbosity                               : normal  (1)
 write checkpoint data to                       : Conf_0034.check
 type of calculation                            : geometry optimization
 stress calculation                             : off
 density difference calculation                 : off
 electron localisation func (ELF) calculation   : off
 Hirshfeld analysis                             : on
 polarisation (Berry phase) analysis            : off
 molecular orbital projected DOS                : off
 deltaSCF calculation                           : off
 unlimited duration calculation
 timing information                             : on
 memory usage estimate                          : on
 write extra output files                       : on
 write final potential to formatted file        : off
 write final density to formatted file          : off
 write BibTeX reference list                    : on
 write OTFG pseudopotential files               : on
 write electrostatic potential file             : on
 write bands file                               : on
 checkpoint writing                             : both castep_bin and check files
  
 output         length unit                     : A
 output           mass unit                     : amu
 output           time unit                     : ps
 output         charge unit                     : e
 output           spin unit                     : hbar/2
 output         energy unit                     : eV
 output          force unit                     : eV/A
 output       velocity unit                     : A/ps
 output       pressure unit                     : GPa
 output     inv_length unit                     : 1/A
 output      frequency unit                     : cm-1
 output force constant unit                     : eV/A**2
 output         volume unit                     : A**3
 output   IR intensity unit                     : (D/A)**2/amu
 output         dipole unit                     : D
 output         efield unit                     : eV/A/e
 output        entropy unit                     : J/mol/K
 output    efield chi2 unit                     : pm/V
  
 wavefunctions paging                           : none
 random number generator seed                   :   14040265
 data distribution                              : optimal for this architecture
 optimization strategy                          : balance speed and memory

 *********************** Exchange-Correlation Parameters ***********************
  
 using functional                               : Perdew Burke Ernzerhof
 relativistic treatment                         : Koelling-Harmon
 DFT+D: Semi-empirical dispersion correction    : on
 SEDC with                                      : G06 correction scheme

 ************************* Pseudopotential Parameters **************************
  
 pseudopotential representation                 : reciprocal space
 <beta|phi> representation                      : reciprocal space
 spin-orbit coupling                            : off

 **************************** Basis Set Parameters *****************************
  
 plane wave basis set cut-off                   :   600.0000   eV
 size of standard grid                          :     1.5000
 size of   fine   gmax                          :    18.8237   1/A
 largest prime factor in FFT                    :          5
 finite basis set correction                    : none

 **************************** Electronic Parameters ****************************
  
 number of  electrons                           :  74.00    
 net charge of system                           : +1.000    
 treating system as non-spin-polarized
 number of bands                                :         37

 ********************* Electronic Minimization Parameters **********************
  
 Method: Treating system as non-metallic,
         and number of  SD  steps               :          1
         and number of  CG  steps               :          4
  
 total energy / atom convergence tol.           : 0.2000E-05   eV
 eigen-energy convergence tolerance             : 0.1000E-05   eV
 max force / atom convergence tol.              : ignored
 convergence tolerance window                   :          3   cycles
 max. number of SCF cycles                      :        100
 periodic dipole correction                     : NONE

 ************************** Density Mixing Parameters **************************
  
 density-mixing scheme                          : Pulay
 max. length of mixing history                  :         20
 charge density mixing amplitude                : 0.5000    
 cut-off energy for mixing                      :  600.0       eV
 charge density mixing g-vector                 :  1.500       1/A

 *********************** Population Analysis Parameters ************************
  
 Population analysis with cutoff                :  3.000       A
 Population analysis output                     : summary and pdos components

 ********************** Geometry Optimization Parameters ***********************
  
 optimization method                            : LBFGS
 max. no. of LBFGS updates                      : unbounded
 preconditioned LBFGS is activated
 preconditioner type                            : EXP
     stabilization constant                     :     0.1000
     parameter A                                :     3.0000
     nearest neighbor distance                  : automatic
     cut-off distance                           : automatic
     parameter mu                               : automatic
 variable cell method                           : fixed basis quality
 max. number of steps                           :        300
 estimated bulk modulus                         :  500.0       GPa
 estimated <frequency>                          :  1668.       cm-1
 geom line minimiser                            : on
 with line minimiser tolerance                  :     0.4000
 total energy convergence tolerance             : 0.2000E-04   eV/atom
        max ionic |force| tolerance             : 0.5000E-01   eV/A
 max ionic |displacement| tolerance             : 0.2000E-02   A
   max |stress component| tolerance             : 0.1000       GPa
 convergence tolerance window                   :          2   steps
 backup results every                           :          5   steps
 write geom trajectory file                     : on

 *******************************************************************************
  
 
                           -------------------------------
                                      Unit Cell
                           -------------------------------
        Real Lattice(A)                      Reciprocal Lattice(1/A)
    13.4840002    -0.0000006    -0.0000006        0.465973392   0.000000000   0.000000000
     0.0000000    20.4006996    -0.0000009        0.000000013   0.307988717   0.000000000
     0.0000000     0.0000000    45.0000000        0.000000006   0.000000006   0.139626340
 
                       Lattice parameters(A)       Cell Angles
                    a =     13.484000          alpha =   90.000003
                    b =     20.400700          beta  =   90.000003
                    c =     45.000000          gamma =   90.000003
 
                       Current cell volume =         12378.736702       A**3
                                   density =             0.015698   AMU/A**3
                                           =             0.026068     g/cm^3
 
                           -------------------------------
                                     Cell Contents
                           -------------------------------
                         Total number of ions in cell =   32
                      Total number of species in cell =    5
                        Max number of any one species =   20
 
            xxxxxxxxxxxxxxxxxxxxxxxxxxxxxxxxxxxxxxxxxxxxxxxxxxxxxxxxxxxx
            x  Element    Atom        Fractional coordinates of atoms  x
            x            Number           u          v          w      x
            x----------------------------------------------------------x
            x  H            1         0.428669   0.500911   0.524975   x 
            x  H            2         0.542885   0.533190   0.539357   x 
            x  H            3         0.345620   0.523071   0.574265   x 
            x  H            4         0.458363   0.555342   0.588544   x 
            x  H            5         0.447394   0.675728   0.499218   x 
            x  H            6         0.547847   0.619994   0.502365   x 
            x  H            7         0.393400   0.619359   0.459236   x 
            x  H            8         0.356937   0.554439   0.482250   x 
            x  H            9         0.528372   0.503224   0.475441   x 
            x  H           10         0.559855   0.568629   0.451462   x 
            x  H           11         0.314097   0.421264   0.424363   x 
            x  H           12         0.505915   0.417109   0.395227   x 
            x  H           13         0.383447   0.526071   0.382495   x 
            x  H           14         0.353675   0.608018   0.532620   x 
            x  H           15         0.455754   0.637572   0.547467   x 
            x  H           16         0.427739   0.413378   0.567354   x 
            x  H           17         0.540106   0.445775   0.581517   x 
            x  H           18         0.448189   0.384828   0.621060   x 
            x  H           19         0.343278   0.436578   0.616253   x 
            x  H           20         0.456247   0.469320   0.630479   x 
            x  C            1         0.461390   0.534997   0.541265   x 
            x  C            2         0.427149   0.519320   0.572808   x 
            x  C            3         0.466212   0.623394   0.501858   x 
            x  C            4         0.422185   0.583748   0.475641   x 
            x  C            5         0.496924   0.539082   0.459676   x 
            x  C            6         0.458535   0.450387   0.582734   x 
            x  C            7         0.424709   0.434436   0.614341   x 
            x  N            1         0.428558   0.605464   0.532420   x 
            x  O            1         0.523272   0.443095   0.411892   x 
            x  O            2         0.402218   0.542279   0.401419   x 
            x  O            3         0.348361   0.448070   0.438178   x 
            x  Si           1         0.442197   0.492090   0.426919   x 
            xxxxxxxxxxxxxxxxxxxxxxxxxxxxxxxxxxxxxxxxxxxxxxxxxxxxxxxxxxxx
 
 
                         No user defined ionic velocities
 
                           -------------------------------
                                   Details of Species
                           -------------------------------
 
                               Mass of species in AMU
                                    H    1.0080000
                                    C   12.0109997
                                    N   14.0070000
                                    O   15.9989996
                                    Si   28.0849991
 
                          Electric Quadrupole Moment (Barn)
                                    H    0.0028600 Isotope  2
                                    C    0.0332700 Isotope 11
                                    N    0.0204400 Isotope 14
                                    O   -0.0255800 Isotope 17
                                    Si    1.0000000 No Isotope Defined
 
                          Files used for pseudopotentials:
                                    H 1|0.6|9|10|15|10UU(qc=8)[]
                                    C 2|1.4|11|12|14.7|20UU:21UU(qc=7)[]
                                    N 2|1.1|12|16|19|20UU:21UU(qc=7)[]
                                    O 2|1.1|14|18|21|20UU:21UU(qc=7)[]
                                    Si 3|1.8|3.6|5|7|30UU:31UU:32UU[]
 
                           -------------------------------
                              k-Points For BZ Sampling
                           -------------------------------
                       MP grid size for SCF calculation is  1  1  1
                            with an offset of   0.000  0.000  0.000
                       Number of kpoints used =             1
 
                           -------------------------------
                               Symmetry and Constraints
                           -------------------------------
 
                      Maximum deviation from symmetry =  0.00000         ANG
 
                      Number of symmetry operations   =           1
                      Number of nonlinear constraints =           3
         There are no ionic constraints specified or generated for this cell
                      Point group of crystal =     1: C1, 1, 1
                      Space group of crystal =     1: P1, P 1
 
             Set iprint > 1 for details on symmetry rotations/translations
 
                         Centre of mass is NOT constrained
 
                         Number of cell constraints= 6
                         Cell constraints are:  0 0 0 0 0 0
 
                         External pressure/stress (GPa)
                          0.00000   0.00000   0.00000
                                    0.00000   0.00000
                                              0.00000
 
                                --------------------
                                  DFT-D parameters
                                --------------------
 
                          Dispersion-correction scheme : G06       
                        Parameter s6 :   0.750000 (default)
                        Parameter d  :  20.000000 (default)
 
        xxxxxxxxxxxxxxxxxxxxxxxxxxxxxxxxxxxxxxxxxxxxxxxxxxxxxxxxxxxxxxxxxxxx
        x              Atomic DFT-D parameters                             x
        x  Species      C6            R0                                   x
        x               eV A^6        Ang                                  x
        x------------------------------------------------------------------x
        x  H             1.4510       1.0010   (default)                   x
        x  C            18.1375       1.4520   (default)                   x
        x  N            12.7481       1.3970   (default)                   x
        x  O             7.2550       1.3420   (default)                   x
        x  Si           95.6622       1.7160   (default)                   x
        xxxxxxxxxxxxxxxxxxxxxxxxxxxxxxxxxxxxxxxxxxxxxxxxxxxxxxxxxxxxxxxxxxxx
 
 
+---------------- MEMORY AND SCRATCH DISK ESTIMATES PER PROCESS --------------+
|                                                     Memory          Disk    |
| Baseline code, static data and system overhead     6528.0 MB         0.0 MB |
| BLAS internal memory storage                          0.0 MB         0.0 MB |
| Model and support data                              540.6 MB         0.0 MB |
| Electronic energy minimisation requirements          31.8 MB         0.0 MB |
| Force calculation requirements                        6.8 MB         0.0 MB |
|                                               ----------------------------- |
| Approx. total storage required per process         7100.3 MB         0.0 MB |
|                                                                             |
| Requirements will fluctuate during execution and may exceed these estimates |
+-----------------------------------------------------------------------------+
Calculating approximate eigenstates for fixed initial Hamiltonian
Cut-off for approx. calculation is  119.774 eV
Improving approx. states at cut-off of  300.000 eV
Resetting cut-off to  600.000 eV
Calculating total energy with cut-off of  600.000 eV.
------------------------------------------------------------------------ <-- SCF
SCF loop      Energy                           Energy gain       Timer   <-- SCF
                                               per atom          (sec)   <-- SCF
------------------------------------------------------------------------ <-- SCF
Initial  -2.93356072E+003                                         31.46  <-- SCF
      1  -3.20279134E+003                    8.41345682E+000      32.31  <-- SCF
      2  -3.20328412E+003                    1.53994207E-002      33.22  <-- SCF
      3  -3.19265473E+003                   -3.32168405E-001      34.27  <-- SCF
      4  -3.19144339E+003                   -3.78542187E-002      35.46  <-- SCF
      5  -3.19081801E+003                   -1.95433423E-002      36.49  <-- SCF
      6  -3.19071904E+003                   -3.09268425E-003      37.86  <-- SCF
      7  -3.19064698E+003                   -2.25181289E-003      38.91  <-- SCF
      8  -3.19063305E+003                   -4.35264545E-004      40.04  <-- SCF
      9  -3.19061904E+003                   -4.37845770E-004      41.06  <-- SCF
     10  -3.19060121E+003                   -5.57255325E-004      42.12  <-- SCF
     11  -3.19057313E+003                   -8.77367788E-004      43.21  <-- SCF
     12  -3.19052289E+003                   -1.57020337E-003      44.26  <-- SCF
     13  -3.19046494E+003                   -1.81085554E-003      45.31  <-- SCF
     14  -3.19040348E+003                   -1.92079159E-003      46.31  <-- SCF
     15  -3.19034613E+003                   -1.79216169E-003      47.35  <-- SCF
     16  -3.19030480E+003                   -1.29144312E-003      48.35  <-- SCF
     17  -3.19026793E+003                   -1.15206031E-003      49.35  <-- SCF
     18  -3.19024110E+003                   -8.38461253E-004      50.36  <-- SCF
     19  -3.19021652E+003                   -7.68249376E-004      51.32  <-- SCF
     20  -3.19019276E+003                   -7.42548109E-004      52.23  <-- SCF
     21  -3.19016913E+003                   -7.38422532E-004      53.23  <-- SCF
     22  -3.19015727E+003                   -3.70426920E-004      54.17  <-- SCF
     23  -3.19015356E+003                   -1.16082181E-004      55.18  <-- SCF
     24  -3.19015497E+003                    4.39928601E-005      56.09  <-- SCF
     25  -3.19015615E+003                    3.67926513E-005      56.91  <-- SCF
     26  -3.19016069E+003                    1.42032971E-004      57.81  <-- SCF
     27  -3.19016514E+003                    1.38938665E-004      58.79  <-- SCF
     28  -3.19016670E+003                    4.88482083E-005      59.66  <-- SCF
     29  -3.19016973E+003                    9.46422002E-005      60.47  <-- SCF
     30  -3.19017251E+003                    8.68967074E-005      61.29  <-- SCF
     31  -3.19017490E+003                    7.46745144E-005      62.10  <-- SCF
     32  -3.19017670E+003                    5.62770713E-005      62.91  <-- SCF
     33  -3.19017820E+003                    4.69479389E-005      63.72  <-- SCF
     34  -3.19017900E+003                    2.49234887E-005      64.53  <-- SCF
     35  -3.19018029E+003                    4.03216250E-005      65.34  <-- SCF
     36  -3.19018100E+003                    2.21539483E-005      66.15  <-- SCF
     37  -3.19018162E+003                    1.93947900E-005      66.96  <-- SCF
     38  -3.19018203E+003                    1.27850202E-005      67.79  <-- SCF
     39  -3.19018232E+003                    9.26301214E-006      68.63  <-- SCF
     40  -3.19018254E+003                    6.86668379E-006      69.45  <-- SCF
     41  -3.19018290E+003                    1.11878698E-005      70.26  <-- SCF
     42  -3.19018313E+003                    7.10829434E-006      71.07  <-- SCF
     43  -3.19018328E+003                    4.67033171E-006      71.89  <-- SCF
     44  -3.19018336E+003                    2.59826562E-006      72.69  <-- SCF
     45  -3.19018345E+003                    2.66048387E-006      73.50  <-- SCF
     46  -3.19018351E+003                    2.11062313E-006      74.32  <-- SCF
     47  -3.19018356E+003                    1.29321381E-006      75.13  <-- SCF
     48  -3.19018358E+003                    6.47312455E-007      75.94  <-- SCF
------------------------------------------------------------------------ <-- SCF
 
Final energy =  -3190.183576859     eV
(energy not corrected for finite basis set)
 
(SEDC) Total Energy Correction : -0.751435E+00 eV

Dispersion corrected final energy* =  -3190.935011521     eV

Writing analysis data to Conf_0034.castep_bin

Writing model to Conf_0034.check

WARNING - nonlinear constraints cannot be used with LBFGS algorithm
        - consider setting geom_method=DELOCALIZED
 
        => Turning nonlinear constraints OFF
 
+---------------- MEMORY AND SCRATCH DISK ESTIMATES PER PROCESS --------------+
|                                                     Memory          Disk    |
| Model and support data                              550.1 MB         0.0 MB |
| Electronic energy minimisation requirements          31.8 MB         0.0 MB |
| Geometry minimisation requirements                   34.8 MB         0.0 MB |
|                                               ----------------------------- |
| Approx. total storage required per process          616.7 MB         0.0 MB |
|                                                                             |
| Requirements will fluctuate during execution and may exceed these estimates |
+-----------------------------------------------------------------------------+
 
 
 ************************************** Forces **************************************
 *                                                                                  *
 *                           Cartesian components (eV/A)                            *
 * -------------------------------------------------------------------------------- *
 *                         x                    y                    z              *
 *                                                                                  *
 * H               1      0.02946              0.26339              0.00107         *
 * H               2     -0.15430              0.18457             -0.06244         *
 * H               3      0.00235              0.02835             -0.02481         *
 * H               4      0.02425              0.04328             -0.01584         *
 * H               5      0.08711             -0.12073              0.02636         *
 * H               6     -0.17022             -0.11912              0.14620         *
 * H               7      0.02220             -0.08147              0.19999         *
 * H               8      0.02194              0.10663              0.18100         *
 * H               9     -0.00984             -0.07127             -0.09756         *
 * H              10     -0.06535             -0.04788             -0.03788         *
 * H              11     -0.50172             -0.57722             -0.60756         *
 * H              12     -0.16360             -0.55428             -0.81238         *
 * H              13     -0.21178             -0.27385             -0.94720         *
 * H              14     -0.71302              0.02233              0.12304         *
 * H              15      0.15931              0.40316              0.54658         *
 * H              16      0.03765              0.11718             -0.02357         *
 * H              17     -0.10235              0.05989             -0.06368         *
 * H              18      0.00448              0.16740             -0.11521         *
 * H              19      0.04446              0.01329             -0.03201         *
 * H              20     -0.04049             -0.04700             -0.04621         *
 * C               1     -0.36318              0.26605              0.41618         *
 * C               2      0.01106             -0.01610             -0.01182         *
 * C               3     -0.05425              0.73395             -0.52992         *
 * C               4     -0.14516              0.07221             -0.21652         *
 * C               5     -0.03663             -0.28877             -0.21934         *
 * C               6      0.13073             -0.24154             -0.07782         *
 * C               7     -0.06088              0.04197              0.13687         *
 * N               1      0.97044             -1.93069             -0.84119         *
 * O               1      1.13333              0.36651              0.99067         *
 * O               2      0.16461              1.28435              0.89543         *
 * O               3     -0.02296              0.41308              1.59945         *
 * Si              1     -0.02765             -0.21765             -0.47987         *
 *                                                                                  *
 ************************************************************************************
 EXP precond LBFGS => estimated nearest neighbor distance :  1.628       A
 EXP precond LBFGS => estimated cutoff distance :  3.257       A
 doing test perturbation to get energy scale for EXP preconditioner
 
                           -------------------------------
                                     Cell Contents
                           -------------------------------
 
            xxxxxxxxxxxxxxxxxxxxxxxxxxxxxxxxxxxxxxxxxxxxxxxxxxxxxxxxxxxxxxxxx
            x  Element         Atom        Fractional coordinates of atoms  x
            x                 Number           u          v          w      x
            x---------------------------------------------------------------x
            x  H                 1         0.429858   0.501700   0.525285   x
            x  H                 2         0.543855   0.533961   0.539655   x
            x  H                 3         0.346811   0.523848   0.574531   x
            x  H                 4         0.459518   0.556095   0.588796   x
            x  H                 5         0.448564   0.676311   0.499545   x
            x  H                 6         0.548802   0.620670   0.502690   x
            x  H                 7         0.394607   0.620036   0.459584   x
            x  H                 8         0.358136   0.555193   0.482587   x
            x  H                 9         0.529382   0.504013   0.475781   x
            x  H                10         0.560773   0.569369   0.451812   x
            x  H                11         0.315254   0.422056   0.424722   x
            x  H                12         0.506982   0.417899   0.395588   x
            x  H                13         0.384654   0.526847   0.382857   x
            x  H                14         0.354873   0.608711   0.532923   x
            x  H                15         0.456914   0.638221   0.547758   x
            x  H                16         0.428929   0.414167   0.567627   x
            x  H                17         0.541084   0.446572   0.581775   x
            x  H                18         0.449358   0.385601   0.621275   x
            x  H                19         0.344467   0.437374   0.616474   x
            x  H                20         0.457405   0.470117   0.630683   x
            x  C                 1         0.462541   0.535766   0.541561   x
            x  C                 2         0.428340   0.520099   0.573075   x
            x  C                 3         0.467356   0.624065   0.502184   x
            x  C                 4         0.423379   0.584471   0.475981   x
            x  C                 5         0.498011   0.539849   0.460024   x
            x  C                 6         0.459690   0.451185   0.582991   x
            x  C                 7         0.425901   0.435232   0.614565   x
            x  N                 1         0.429747   0.606161   0.532723   x
            x  O                 1         0.524296   0.443892   0.412252   x
            x  O                 2         0.403423   0.543043   0.401781   x
            x  O                 3         0.349554   0.448868   0.438532   x
            x  Si                1         0.443373   0.492882   0.427277   x
            xxxxxxxxxxxxxxxxxxxxxxxxxxxxxxxxxxxxxxxxxxxxxxxxxxxxxxxxxxxxxxxxx
 
 
------------------------------------------------------------------------ <-- SCF
SCF loop      Energy                           Energy gain       Timer   <-- SCF
                                               per atom          (sec)   <-- SCF
------------------------------------------------------------------------ <-- SCF
Initial  -3.19251526E+003                                         78.02  <-- SCF
      1  -3.19015932E+003                   -7.36231796E-002      78.84  <-- SCF
      2  -3.19019004E+003                    9.59852209E-004      80.02  <-- SCF
      3  -3.19015327E+003                   -1.14885795E-003      81.05  <-- SCF
      4  -3.19017799E+003                    7.72503276E-004      82.07  <-- SCF
      5  -3.19017839E+003                    1.24356275E-005      82.99  <-- SCF
      6  -3.19017875E+003                    1.10722117E-005      83.79  <-- SCF
      7  -3.19017884E+003                    3.00672192E-006      84.57  <-- SCF
      8  -3.19017894E+003                    3.15439727E-006      85.35  <-- SCF
      9  -3.19017900E+003                    1.92862991E-006      86.13  <-- SCF
     10  -3.19017907E+003                    2.16057013E-006      86.91  <-- SCF
     11  -3.19017912E+003                    1.34341337E-006      87.70  <-- SCF
     12  -3.19017916E+003                    1.41538823E-006      88.49  <-- SCF
     13  -3.19017919E+003                    8.49626361E-007      89.27  <-- SCF
     14  -3.19017922E+003                    8.86988983E-007      90.06  <-- SCF
------------------------------------------------------------------------ <-- SCF
 
Final energy =  -3190.179217662     eV
(energy not corrected for finite basis set)
 
(SEDC) Total Energy Correction : -0.751932E+00 eV

Dispersion corrected final energy* =  -3190.931149987     eV
 
 ************************************** Forces **************************************
 *                                                                                  *
 *                           Cartesian components (eV/A)                            *
 * -------------------------------------------------------------------------------- *
 *                         x                    y                    z              *
 *                                                                                  *
 * H               1      0.01224              0.23805             -0.01392         *
 * H               2     -0.06158              0.17581             -0.06123         *
 * H               3      0.03461              0.02249             -0.03331         *
 * H               4      0.03438              0.06224              0.00670         *
 * H               5      0.07056             -0.06392              0.01676         *
 * H               6     -0.10083             -0.11843              0.15190         *
 * H               7      0.01202             -0.04863              0.17486         *
 * H               8      0.02976              0.09623              0.18754         *
 * H               9      0.00643             -0.07064             -0.07376         *
 * H              10     -0.02564             -0.01550             -0.06947         *
 * H              11     -0.50054             -0.57936             -0.61060         *
 * H              12     -0.14243             -0.55342             -0.82079         *
 * H              13     -0.20751             -0.27469             -0.94490         *
 * H              14     -0.74025              0.03782              0.12797         *
 * H              15      0.21063              0.44103              0.58867         *
 * H              16      0.01870              0.10515             -0.04195         *
 * H              17     -0.02771              0.05002             -0.07805         *
 * H              18     -0.00900              0.18255             -0.11051         *
 * H              19      0.04749              0.00463             -0.02917         *
 * H              20      0.00167             -0.03962             -0.03500         *
 * C               1     -0.40862              0.27041              0.41165         *
 * C               2     -0.01711             -0.03004             -0.01041         *
 * C               3     -0.09560              0.72271             -0.52835         *
 * C               4     -0.17090              0.06790             -0.21125         *
 * C               5     -0.06302             -0.31560             -0.22182         *
 * C               6      0.08521             -0.23297             -0.09179         *
 * C               7     -0.08145              0.01928              0.15561         *
 * N               1      0.87023             -1.99212             -0.84631         *
 * O               1      1.16630              0.34775              0.97613         *
 * O               2      0.16633              1.30017              0.89872         *
 * O               3     -0.05525              0.40153              1.60071         *
 * Si              1     -0.05913             -0.21081             -0.46462         *
 *                                                                                  *
 ************************************************************************************
 EXP precond LBFGS => estimated parameter mu :  1.000       eV/A**2
 LBFGS: finished iteration     0 with enthalpy= -3.19093501E+003 eV
  
 +-----------+-----------------+-----------------+------------+-----+ <-- LBFGS
 | Parameter |      value      |    tolerance    |    units   | OK? | <-- LBFGS
 +-----------+-----------------+-----------------+------------+-----+ <-- LBFGS
 |  dE/ion   |   0.000000E+000 |   2.000000E-005 |         eV | No  | <-- LBFGS
 |  |F|max   |   2.332827E+000 |   5.000000E-002 |       eV/A | No  | <-- LBFGS
 |  |dR|max  |   5.177142E-015 |   2.000000E-003 |          A | No  | <-- LBFGS
 +-----------+-----------------+-----------------+------------+-----+ <-- LBFGS
  

================================================================================
 Starting LBFGS iteration          1 ...
================================================================================
  
 +------------+-------------+-------------+-----------------+ <-- min LBFGS
 |    Step    |   lambda    |   F.delta'  |    enthalpy     | <-- min LBFGS
 +------------+-------------+-------------+-----------------+ <-- min LBFGS
 |  previous  |    0.000000 |    1.791263 |    -3190.935012 | <-- min LBFGS
 +------------+-------------+-------------+-----------------+ <-- min LBFGS
  

--------------------------------------------------------------------------------
 LBFGS: starting iteration         1 with trial guess (lambda=  0.462137)
--------------------------------------------------------------------------------
 
                           -------------------------------
                                     Cell Contents
                           -------------------------------
 
            xxxxxxxxxxxxxxxxxxxxxxxxxxxxxxxxxxxxxxxxxxxxxxxxxxxxxxxxxxxxxxxxx
            x  Element         Atom        Fractional coordinates of atoms  x
            x                 Number           u          v          w      x
            x---------------------------------------------------------------x
            x  H                 1         0.426799   0.501059   0.524495   x
            x  H                 2         0.540010   0.533114   0.538762   x
            x  H                 3         0.344032   0.522651   0.573502   x
            x  H                 4         0.456927   0.554979   0.587804   x
            x  H                 5         0.446984   0.673857   0.498418   x
            x  H                 6         0.546000   0.618301   0.501775   x
            x  H                 7         0.392731   0.618253   0.459219   x
            x  H                 8         0.356091   0.553820   0.482227   x
            x  H                 9         0.528131   0.501838   0.475041   x
            x  H                10         0.559417   0.567348   0.451135   x
            x  H                11         0.309981   0.420104   0.427893   x
            x  H                12         0.517833   0.416034   0.396065   x
            x  H                13         0.385728   0.533469   0.382434   x
            x  H                14         0.350008   0.604760   0.531973   x
            x  H                15         0.456147   0.635443   0.547400   x
            x  H                16         0.426477   0.413779   0.566413   x
            x  H                17         0.538029   0.445954   0.580506   x
            x  H                18         0.446596   0.385990   0.619918   x
            x  H                19         0.341927   0.437086   0.615273   x
            x  H                20         0.454394   0.469595   0.629474   x
            x  C                 1         0.458547   0.534618   0.541020   x
            x  C                 2         0.425538   0.518855   0.572079   x
            x  C                 3         0.465153   0.622953   0.500686   x
            x  C                 4         0.420978   0.582852   0.475111   x
            x  C                 5         0.496727   0.537529   0.459292   x
            x  C                 6         0.457311   0.450035   0.581763   x
            x  C                 7         0.422964   0.434984   0.613470   x
            x  N                 1         0.429892   0.599734   0.531154   x
            x  O                 1         0.539144   0.444687   0.414883   x
            x  O                 2         0.406026   0.552931   0.403677   x
            x  O                 3         0.346996   0.449776   0.443992   x
            x  Si                1         0.445981   0.493773   0.428245   x
            xxxxxxxxxxxxxxxxxxxxxxxxxxxxxxxxxxxxxxxxxxxxxxxxxxxxxxxxxxxxxxxxx
 
 
------------------------------------------------------------------------ <-- SCF
SCF loop      Energy                           Energy gain       Timer   <-- SCF
                                               per atom          (sec)   <-- SCF
------------------------------------------------------------------------ <-- SCF
Initial  -3.21474873E+003                                         91.45  <-- SCF
      1  -3.18548771E+003                   -9.14406811E-001      92.31  <-- SCF
      2  -3.18998773E+003                    1.40625482E-001      93.68  <-- SCF
      3  -3.18921807E+003                   -2.40515861E-002      94.83  <-- SCF
      4  -3.18934921E+003                    4.09789438E-003      95.93  <-- SCF
      5  -3.18938368E+003                    1.07716178E-003      97.15  <-- SCF
      6  -3.18938782E+003                    1.29358139E-004      98.30  <-- SCF
      7  -3.18938874E+003                    2.88537186E-005      99.20  <-- SCF
      8  -3.18938950E+003                    2.36962372E-005     100.08  <-- SCF
      9  -3.18938988E+003                    1.19671745E-005     100.94  <-- SCF
     10  -3.18939000E+003                    3.66724095E-006     101.74  <-- SCF
     11  -3.18939005E+003                    1.70714840E-006     102.54  <-- SCF
     12  -3.18938997E+003                   -2.55580541E-006     103.33  <-- SCF
     13  -3.18939002E+003                    1.63983411E-006     104.13  <-- SCF
     14  -3.18939012E+003                    3.02402270E-006     104.93  <-- SCF
     15  -3.18939033E+003                    6.56101350E-006     105.73  <-- SCF
     16  -3.18939042E+003                    2.72865305E-006     106.53  <-- SCF
     17  -3.18939065E+003                    7.29519116E-006     107.33  <-- SCF
     18  -3.18939070E+003                    1.42812467E-006     108.13  <-- SCF
     19  -3.18939088E+003                    5.79653333E-006     108.94  <-- SCF
     20  -3.18939094E+003                    1.88523327E-006     109.75  <-- SCF
     21  -3.18939106E+003                    3.76746258E-006     110.56  <-- SCF
     22  -3.18939112E+003                    1.70065866E-006     111.37  <-- SCF
     23  -3.18939117E+003                    1.56460026E-006     112.19  <-- SCF
     24  -3.18939121E+003                    1.46652708E-006     113.04  <-- SCF
     25  -3.18939122E+003                    9.21505852E-008     113.88  <-- SCF
------------------------------------------------------------------------ <-- SCF
 
Final energy =  -3189.391216975     eV
(energy not corrected for finite basis set)
 
(SEDC) Total Energy Correction : -0.759163E+00 eV

Dispersion corrected final energy* =  -3190.150379726     eV
 
 ************************************** Forces **************************************
 *                                                                                  *
 *                           Cartesian components (eV/A)                            *
 * -------------------------------------------------------------------------------- *
 *                         x                    y                    z              *
 *                                                                                  *
 * H               1      0.06741             -0.23304              0.05923         *
 * H               2     -0.09264             -0.14544              0.05190         *
 * H               3     -0.04437              0.02201              0.06907         *
 * H               4     -0.02709              0.01846             -0.02903         *
 * H               5     -0.28025              0.84959              0.23814         *
 * H               6      0.15968              0.00633             -0.08922         *
 * H               7     -0.22395              0.20174             -0.38837         *
 * H               8      0.02495              0.06619              0.08598         *
 * H               9      0.01015             -0.05389              0.01605         *
 * H              10     -0.01642             -0.04657              0.05684         *
 * H              11      1.53566              1.91367              2.36889         *
 * H              12      1.00914              1.84466              2.68410         *
 * H              13      0.90041              1.38915              3.05864         *
 * H              14      1.71259             -0.24693             -0.05849         *
 * H              15     -0.65382             -1.28055             -1.21771         *
 * H              16     -0.06502             -0.15872             -0.16685         *
 * H              17      0.27055             -0.01479             -0.05784         *
 * H              18      0.09325             -0.25090              0.09251         *
 * H              19     -0.10794              0.01020              0.00448         *
 * H              20      0.05339              0.12675              0.11113         *
 * C               1      0.78175             -1.07943             -0.59655         *
 * C               2     -0.17003              0.08588              0.37059         *
 * C               3      0.28801             -1.25282              0.18489         *
 * C               4      0.34574             -0.34774             -0.06078         *
 * C               5      0.51865              1.02819              1.35979         *
 * C               6     -0.20898              0.15904              0.27427         *
 * C               7     -0.00535              0.08164             -0.24621         *
 * N               1     -1.83465              3.25235              1.12755         *
 * O               1     -2.28507             -0.92605             -2.19977         *
 * O               2     -0.41704             -2.67700             -2.10103         *
 * O               3     -0.03019             -0.93419             -3.28703         *
 * Si              1     -1.30851             -1.40779             -1.71519         *
 *                                                                                  *
 ************************************************************************************
  
 +------------+-------------+-------------+-----------------+ <-- min LBFGS
 |    Step    |   lambda    |   F.delta'  |    enthalpy     | <-- min LBFGS
 +------------+-------------+-------------+-----------------+ <-- min LBFGS
 |  previous  |    0.000000 |    1.791263 |    -3190.935012 | <-- min LBFGS
 | trial step |    0.462137 |   -3.394022 |    -3190.150380 | <-- min LBFGS
 +------------+-------------+-------------+-----------------+ <-- min LBFGS
  

--------------------------------------------------------------------------------
 LBFGS: improving iteration         1 with line minimization (lambda=  0.159646)
--------------------------------------------------------------------------------
 
                           -------------------------------
                                     Cell Contents
                           -------------------------------
 
            xxxxxxxxxxxxxxxxxxxxxxxxxxxxxxxxxxxxxxxxxxxxxxxxxxxxxxxxxxxxxxxxx
            x  Element         Atom        Fractional coordinates of atoms  x
            x                 Number           u          v          w      x
            x---------------------------------------------------------------x
            x  H                 1         0.428023   0.500962   0.524810   x
            x  H                 2         0.541892   0.533164   0.539151   x
            x  H                 3         0.345072   0.522926   0.574001   x
            x  H                 4         0.457867   0.555217   0.588289   x
            x  H                 5         0.447252   0.675081   0.498941   x
            x  H                 6         0.547209   0.619409   0.502161   x
            x  H                 7         0.393169   0.618977   0.459230   x
            x  H                 8         0.356645   0.554225   0.482242   x
            x  H                 9         0.528288   0.502746   0.475303   x
            x  H                10         0.559704   0.568187   0.451349   x
            x  H                11         0.312675   0.420863   0.425583   x
            x  H                12         0.510032   0.416737   0.395516   x
            x  H                13         0.384235   0.528627   0.382474   x
            x  H                14         0.352408   0.606892   0.532396   x
            x  H                15         0.455890   0.636836   0.547444   x
            x  H                16         0.427303   0.413516   0.567029   x
            x  H                17         0.539388   0.445837   0.581167   x
            x  H                18         0.447639   0.385229   0.620666   x
            x  H                19         0.342811   0.436753   0.615915   x
            x  H                20         0.455607   0.469415   0.630132   x
            x  C                 1         0.460408   0.534866   0.541181   x
            x  C                 2         0.426593   0.519159   0.572556   x
            x  C                 3         0.465847   0.623241   0.501453   x
            x  C                 4         0.421768   0.583439   0.475458   x
            x  C                 5         0.496856   0.538546   0.459544   x
            x  C                 6         0.458112   0.450265   0.582398   x
            x  C                 7         0.424106   0.434626   0.614040   x
            x  N                 1         0.429018   0.603485   0.531982   x
            x  O                 1         0.528755   0.443645   0.412925   x
            x  O                 2         0.403533   0.545959   0.402199   x
            x  O                 3         0.347889   0.448659   0.440186   x
            x  Si                1         0.443504   0.492671   0.427377   x
            xxxxxxxxxxxxxxxxxxxxxxxxxxxxxxxxxxxxxxxxxxxxxxxxxxxxxxxxxxxxxxxxx
 
 
------------------------------------------------------------------------ <-- SCF
SCF loop      Energy                           Energy gain       Timer   <-- SCF
                                               per atom          (sec)   <-- SCF
------------------------------------------------------------------------ <-- SCF
Initial  -3.21212333E+003                                        115.27  <-- SCF
      1  -3.18948638E+003                   -7.07404731E-001     116.13  <-- SCF
      2  -3.19066238E+003                    3.67501708E-002     117.26  <-- SCF
      3  -3.19019959E+003                   -1.44622726E-002     118.29  <-- SCF
      4  -3.19034357E+003                    4.49944033E-003     119.42  <-- SCF
      5  -3.19037815E+003                    1.08071733E-003     120.54  <-- SCF
      6  -3.19037867E+003                    1.61906903E-005     121.50  <-- SCF
      7  -3.19037903E+003                    1.11442700E-005     122.34  <-- SCF
      8  -3.19037920E+003                    5.34772408E-006     123.13  <-- SCF
      9  -3.19037936E+003                    4.87690451E-006     123.97  <-- SCF
     10  -3.19037957E+003                    6.68904657E-006     124.76  <-- SCF
     11  -3.19037977E+003                    6.15458803E-006     125.55  <-- SCF
     12  -3.19038008E+003                    9.86663619E-006     126.35  <-- SCF
     13  -3.19038020E+003                    3.78814768E-006     127.14  <-- SCF
     14  -3.19038045E+003                    7.79673178E-006     127.96  <-- SCF
     15  -3.19038060E+003                    4.61209958E-006     128.77  <-- SCF
     16  -3.19038074E+003                    4.27972641E-006     129.57  <-- SCF
     17  -3.19038086E+003                    3.81250950E-006     130.38  <-- SCF
     18  -3.19038096E+003                    3.27065895E-006     131.18  <-- SCF
     19  -3.19038108E+003                    3.55838012E-006     131.99  <-- SCF
     20  -3.19038116E+003                    2.41724233E-006     132.80  <-- SCF
     21  -3.19038125E+003                    2.93767069E-006     133.61  <-- SCF
     22  -3.19038129E+003                    1.26884116E-006     134.42  <-- SCF
     23  -3.19038136E+003                    2.22467435E-006     135.23  <-- SCF
     24  -3.19038139E+003                    7.79927987E-007     136.05  <-- SCF
     25  -3.19038142E+003                    1.06139433E-006     136.86  <-- SCF
------------------------------------------------------------------------ <-- SCF
 
Final energy =  -3190.381420416     eV
(energy not corrected for finite basis set)
 
(SEDC) Total Energy Correction : -0.754451E+00 eV

Dispersion corrected final energy* =  -3191.135871238     eV
 
 ************************************** Forces **************************************
 *                                                                                  *
 *                           Cartesian components (eV/A)                            *
 * -------------------------------------------------------------------------------- *
 *                         x                    y                    z              *
 *                                                                                  *
 * H               1      0.04323              0.10246              0.02033         *
 * H               2     -0.15562              0.07215             -0.02586         *
 * H               3     -0.01575              0.02137              0.01368         *
 * H               4      0.00931              0.02832             -0.02200         *
 * H               5     -0.03328              0.18634              0.10165         *
 * H               6     -0.05361             -0.08472              0.06469         *
 * H               7     -0.05841              0.00995              0.00292         *
 * H               8      0.02190              0.08653              0.15022         *
 * H               9     -0.00259             -0.06951             -0.05961         *
 * H              10     -0.04821             -0.04436             -0.00489         *
 * H              11      0.44349              0.54789              0.66284         *
 * H              12      0.33640              0.54023              0.75434         *
 * H              13      0.31124              0.46829              0.85750         *
 * H              14      0.26528             -0.08702              0.06677         *
 * H              15     -0.19617             -0.28469             -0.17565         *
 * H              16      0.00352              0.01899             -0.07237         *
 * H              17      0.02365              0.03140             -0.04856         *
 * H              18      0.03505              0.02341             -0.04763         *
 * H              19     -0.00972              0.00725             -0.02174         *
 * H              20     -0.01044              0.00853              0.01214         *
 * C               1     -0.01030             -0.07501              0.03446         *
 * C               2     -0.04788              0.01668              0.11260         *
 * C               3      0.04843              0.07368             -0.28110         *
 * C               4      0.02984             -0.07492             -0.16881         *
 * C               5      0.10736              0.10089              0.22580         *
 * C               6      0.01442             -0.10778              0.04198         *
 * C               7     -0.03912              0.04880              0.00423         *
 * N               1     -0.01231             -0.11107             -0.00421         *
 * O               1     -0.22993             -0.27844             -0.43387         *
 * O               2     -0.12537             -0.30107             -0.42933         *
 * O               3     -0.08367             -0.18814             -0.43571         *
 * Si              1     -0.56075             -0.68644             -0.89478         *
 *                                                                                  *
 ************************************************************************************
  
 +------------+-------------+-------------+-----------------+ <-- min LBFGS
 |    Step    |   lambda    |   F.delta'  |    enthalpy     | <-- min LBFGS
 +------------+-------------+-------------+-----------------+ <-- min LBFGS
 |  previous  |    0.000000 |    1.791263 |    -3190.935012 | <-- min LBFGS
 | trial step |    0.462137 |   -3.394022 |    -3190.150380 | <-- min LBFGS
 |  line step |    0.159646 |   -0.263249 |    -3191.135871 | <-- min LBFGS
 +------------+-------------+-------------+-----------------+ <-- min LBFGS
  
 LBFGS: finished iteration     1 with enthalpy= -3.19113587E+003 eV
  
 +-----------+-----------------+-----------------+------------+-----+ <-- LBFGS
 | Parameter |      value      |    tolerance    |    units   | OK? | <-- LBFGS
 +-----------+-----------------+-----------------+------------+-----+ <-- LBFGS
 |  dE/ion   |   6.276866E-003 |   2.000000E-005 |         eV | No  | <-- LBFGS
 |  |F|max   |   1.259472E+000 |   5.000000E-002 |       eV/A | No  | <-- LBFGS
 |  |dR|max  |   9.140245E-002 |   2.000000E-003 |          A | No  | <-- LBFGS
 +-----------+-----------------+-----------------+------------+-----+ <-- LBFGS
  

================================================================================
 Starting LBFGS iteration          2 ...
================================================================================
  
 +------------+-------------+-------------+-----------------+ <-- min LBFGS
 |    Step    |   lambda    |   F.delta'  |    enthalpy     | <-- min LBFGS
 +------------+-------------+-------------+-----------------+ <-- min LBFGS
 |  previous  |    0.000000 |    0.667770 |    -3191.135871 | <-- min LBFGS
 +------------+-------------+-------------+-----------------+ <-- min LBFGS
  

--------------------------------------------------------------------------------
 LBFGS: starting iteration         2 with trial guess (lambda=  0.636744)
--------------------------------------------------------------------------------
 
                           -------------------------------
                                     Cell Contents
                           -------------------------------
 
            xxxxxxxxxxxxxxxxxxxxxxxxxxxxxxxxxxxxxxxxxxxxxxxxxxxxxxxxxxxxxxxxx
            x  Element         Atom        Fractional coordinates of atoms  x
            x                 Number           u          v          w      x
            x---------------------------------------------------------------x
            x  H                 1         0.425888   0.500404   0.524112   x
            x  H                 2         0.537794   0.532320   0.538271   x
            x  H                 3         0.342603   0.521970   0.573145   x
            x  H                 4         0.455567   0.554302   0.587365   x
            x  H                 5         0.445850   0.673936   0.498102   x
            x  H                 6         0.544869   0.617203   0.501386   x
            x  H                 7         0.391896   0.617766   0.458876   x
            x  H                 8         0.355877   0.553539   0.482154   x
            x  H                 9         0.527927   0.501033   0.474843   x
            x  H                10         0.558922   0.566617   0.451060   x
            x  H                11         0.319426   0.426551   0.430304   x
            x  H                12         0.521817   0.421614   0.399312   x
            x  H                13         0.391332   0.537101   0.386384   x
            x  H                14         0.350834   0.603112   0.531575   x
            x  H                15         0.453791   0.632876   0.546502   x
            x  H                16         0.425288   0.413183   0.565769   x
            x  H                17         0.537044   0.445436   0.579916   x
            x  H                18         0.445609   0.385706   0.619282   x
            x  H                19         0.340581   0.436778   0.614689   x
            x  H                20         0.453103   0.469320   0.628962   x
            x  C                 1         0.457281   0.533447   0.540572   x
            x  C                 2         0.424028   0.518131   0.571774   x
            x  C                 3         0.464415   0.622197   0.500027   x
            x  C                 4         0.420642   0.582112   0.474675   x
            x  C                 5         0.496862   0.537207   0.459405   x
            x  C                 6         0.456115   0.449273   0.581284   x
            x  C                 7         0.421637   0.434724   0.612905   x
            x  N                 1         0.428604   0.598401   0.530675   x
            x  O                 1         0.539176   0.446486   0.415656   x
            x  O                 2         0.408475   0.553017   0.404903   x
            x  O                 3         0.352311   0.452583   0.444119   x
            x  Si                1         0.443936   0.491813   0.427094   x
            xxxxxxxxxxxxxxxxxxxxxxxxxxxxxxxxxxxxxxxxxxxxxxxxxxxxxxxxxxxxxxxxx
 
 
------------------------------------------------------------------------ <-- SCF
SCF loop      Energy                           Energy gain       Timer   <-- SCF
                                               per atom          (sec)   <-- SCF
------------------------------------------------------------------------ <-- SCF
Initial  -3.22925209E+003                                        138.26  <-- SCF
      1  -3.18738912E+003                   -1.30821777E+000     139.15  <-- SCF
      2  -3.19006355E+003                    8.35759904E-002     140.44  <-- SCF
      3  -3.18971146E+003                   -1.10028992E-002     141.60  <-- SCF
      4  -3.18990452E+003                    6.03325482E-003     142.66  <-- SCF
      5  -3.18990861E+003                    1.27778632E-004     143.91  <-- SCF
      6  -3.18990940E+003                    2.46167827E-005     144.93  <-- SCF
      7  -3.18990851E+003                   -2.77098986E-005     145.92  <-- SCF
      8  -3.18990677E+003                   -5.43067662E-005     146.87  <-- SCF
      9  -3.18990639E+003                   -1.20562878E-005     147.78  <-- SCF
     10  -3.18990643E+003                    1.36872085E-006     148.64  <-- SCF
     11  -3.18990684E+003                    1.28019269E-005     149.51  <-- SCF
     12  -3.18990715E+003                    9.72127184E-006     150.30  <-- SCF
     13  -3.18990779E+003                    1.97923517E-005     151.13  <-- SCF
     14  -3.18990823E+003                    1.37305152E-005     151.93  <-- SCF
     15  -3.18990872E+003                    1.54293982E-005     152.72  <-- SCF
     16  -3.18990904E+003                    9.92497157E-006     153.53  <-- SCF
     17  -3.18990948E+003                    1.38493947E-005     154.33  <-- SCF
     18  -3.18990975E+003                    8.44459257E-006     155.13  <-- SCF
     19  -3.18990994E+003                    5.81085089E-006     155.94  <-- SCF
     20  -3.18991011E+003                    5.54506540E-006     156.75  <-- SCF
[...]
 * H              19     -0.00307             -0.00093              0.00098         *
 * H              20     -0.00087             -0.00246             -0.00026         *
 * C               1     -0.00071             -0.00605             -0.00200         *
 * C               2      0.00128              0.00251              0.00058         *
 * C               3     -0.00182              0.00685             -0.00195         *
 * C               4     -0.00004             -0.00591             -0.00290         *
 * C               5     -0.00748             -0.00009             -0.00051         *
 * C               6      0.00609             -0.00182              0.00147         *
 * C               7      0.00326             -0.00264              0.00600         *
 * N               1     -0.00714              0.00303              0.00733         *
 * O               1      0.00549              0.01012              0.00085         *
 * O               2     -0.00604              0.00483             -0.00246         *
 * O               3     -0.00920              0.00401             -0.00362         *
 * Si              1      0.00124              0.00125              0.00453         *
 *                                                                                  *
 ************************************************************************************
 
 Pseudo atomic calculation performed for H 1s1
 
 Converged in 13 iterations to a total energy of -12.4790 eV
 
 Pseudo atomic calculation performed for C 2s2 2p2
 
 Converged in 17 iterations to a total energy of -148.5208 eV
 
 Pseudo atomic calculation performed for N 2s2 2p3
 
 Converged in 21 iterations to a total energy of -268.1820 eV
 
 Pseudo atomic calculation performed for O 2s2 2p4
 
 Converged in 23 iterations to a total energy of -432.6536 eV
 
 Pseudo atomic calculation performed for Si 3s2 3p2
 
 Converged in 11 iterations to a total energy of -165.0683 eV
Charge spilling parameter for spin component 1 = 1.54%
 
            Orbital Populations       
     Ion    Atom   Orbital             Charge
  -------------------------------------------
      H     1      S                    0.691
      H     2      S                    0.693
      H     3      S                    0.731
      H     4      S                    0.738
      H     5      S                    0.679
      H     6      S                    0.687
      H     7      S                    0.681
      H     8      S                    0.745
      H     9      S                    0.755
      H    10      S                    0.718
      H    11      S                    0.465
      H    12      S                    0.461
      H    13      S                    0.458
      H    14      S                    0.509
      H    15      S                    0.505
      H    16      S                    0.724
      H    17      S                    0.729
      H    18      S                    0.701
      H    19      S                    0.729
      H    20      S                    0.728
      C     1      S                    1.291
      C     1      Px                   1.203
      C     1      Py                   0.811
      C     1      Pz                   1.086
      C     2      S                    1.296
      C     2      Px                   1.165
      C     2      Py                   1.084
      C     2      Pz                   0.974
      C     3      S                    1.312
      C     3      Px                   1.180
      C     3      Py                   1.138
      C     3      Pz                   0.784
      C     4      S                    1.295
      C     4      Px                   1.102
      C     4      Py                   1.064
      C     4      Pz                   1.073
      C     5      S                    1.397
      C     5      Px                   1.159
      C     5      Py                   1.141
      C     5      Pz                   1.251
      C     6      S                    1.305
      C     6      Px                   1.166
      C     6      Py                   0.991
      C     6      Pz                   1.050
      C     7      S                    1.399
      C     7      Px                   1.180
      C     7      Py                   1.215
      C     7      Pz                   0.999
      N     1      S                    1.590
      N     1      Px                   1.408
      N     1      Py                   1.309
      N     1      Pz                   1.332
      O     1      S                    1.854
      O     1      Px                   1.825
      O     1      Py                   1.679
      O     1      Pz                   1.737
      O     2      S                    1.856
      O     2      Px                   1.834
      O     2      Py                   1.845
      O     2      Pz                   1.566
      O     3      S                    1.856
      O     3      Px                   1.593
      O     3      Py                   1.829
      O     3      Pz                   1.829
     Si     1      S                    0.716
     Si     1      Px                   0.317
     Si     1      Py                   0.409
     Si     1      Pz                   0.381
  -------------------------------------------
                           Total:      74.000
  -------------------------------------------
 
     Atomic Populations (Mulliken)
     -----------------------------
Species          Ion     s       p       d       f      Total   Charge (e)
==========================================================================
  H               1     0.691   0.000   0.000   0.000   0.691     0.309
  H               2     0.693   0.000   0.000   0.000   0.693     0.307
  H               3     0.731   0.000   0.000   0.000   0.731     0.269
  H               4     0.738   0.000   0.000   0.000   0.738     0.262
  H               5     0.679   0.000   0.000   0.000   0.679     0.321
  H               6     0.687   0.000   0.000   0.000   0.687     0.313
  H               7     0.681   0.000   0.000   0.000   0.681     0.319
  H               8     0.745   0.000   0.000   0.000   0.745     0.255
  H               9     0.755   0.000   0.000   0.000   0.755     0.245
  H              10     0.718   0.000   0.000   0.000   0.718     0.282
  H              11     0.465   0.000   0.000   0.000   0.465     0.535
  H              12     0.461   0.000   0.000   0.000   0.461     0.539
  H              13     0.458   0.000   0.000   0.000   0.458     0.542
  H              14     0.509   0.000   0.000   0.000   0.509     0.491
  H              15     0.505   0.000   0.000   0.000   0.505     0.495
  H              16     0.724   0.000   0.000   0.000   0.724     0.276
  H              17     0.729   0.000   0.000   0.000   0.729     0.271
  H              18     0.701   0.000   0.000   0.000   0.701     0.299
  H              19     0.729   0.000   0.000   0.000   0.729     0.271
  H              20     0.728   0.000   0.000   0.000   0.728     0.272
  C               1     1.291   3.100   0.000   0.000   4.392    -0.392
  C               2     1.296   3.223   0.000   0.000   4.519    -0.519
  C               3     1.312   3.102   0.000   0.000   4.415    -0.415
  C               4     1.295   3.239   0.000   0.000   4.534    -0.534
  C               5     1.397   3.551   0.000   0.000   4.948    -0.948
  C               6     1.305   3.206   0.000   0.000   4.511    -0.511
  C               7     1.399   3.394   0.000   0.000   4.793    -0.793
  N               1     1.590   4.048   0.000   0.000   5.638    -0.638
  O               1     1.854   5.240   0.000   0.000   7.095    -1.095
  O               2     1.856   5.245   0.000   0.000   7.101    -1.101
  O               3     1.856   5.251   0.000   0.000   7.108    -1.108
  Si              1     0.716   1.107   0.000   0.000   1.823     2.177
==========================================================================
 
                 Bond                   Population      Length (A)
======================================================================
              H 12 -- O 1                    0.53        0.96809
              H 13 -- O 2                    0.53        0.96896
              H 11 -- O 3                    0.53        0.96980
              H 14 -- N 1                    0.67        1.02855
              H 15 -- N 1                    0.68        1.02950
              H 1  -- C 1                    0.87        1.09739
              H 18 -- C 7                    0.81        1.09762
              H 2  -- C 1                    0.86        1.09784
              H 6  -- C 3                    0.84        1.09892
              H 7  -- C 4                    0.84        1.09916
              H 5  -- C 3                    0.84        1.09939
              H 19 -- C 7                    0.81        1.09971
              H 20 -- C 7                    0.81        1.10075
              H 10 -- C 5                    0.83        1.10151
              H 9  -- C 5                    0.84        1.10174
              H 17 -- C 6                    0.84        1.10216
              H 16 -- C 6                    0.84        1.10230
              H 3  -- C 2                    0.84        1.10378
              H 4  -- C 2                    0.85        1.10459
              H 8  -- C 4                    0.84        1.10565
               C 1 -- N 1                    0.51        1.51136
               C 1 -- C 2                    0.72        1.51820
               C 3 -- N 1                    0.50        1.51955
               C 6 -- C 7                    0.65        1.52737
               C 3 -- C 4                    0.70        1.52952
               C 2 -- C 6                    0.68        1.53152
               C 4 -- C 5                    0.67        1.53563
               O 1 -- Si 1                   0.51        1.64019
              H 14 -- H 15                  -0.11        1.64448
               O 2 -- Si 1                   0.50        1.64961
               O 3 -- Si 1                   0.49        1.65197
              H 7  -- H 8                   -0.10        1.74612
              H 9  -- H 10                  -0.11        1.76308
              H 16 -- H 17                  -0.12        1.76997
              H 3  -- H 4                   -0.12        1.77502
              H 18 -- H 19                  -0.10        1.77730
              H 18 -- H 20                  -0.10        1.77752
              H 19 -- H 20                  -0.10        1.77966
              H 1  -- H 2                   -0.10        1.78495
              H 5  -- H 6                   -0.11        1.78746
               C 5 -- Si 1                   0.58        1.87827
              H 14 -- C 1                   -0.13        2.07086
              H 15 -- C 1                   -0.13        2.07530
              H 14 -- C 3                   -0.13        2.08631
              H 15 -- C 3                   -0.13        2.09442
              H 5  -- N 1                   -0.12        2.09459
              H 2  -- N 1                   -0.11        2.10421
              H 6  -- N 1                   -0.11        2.10986
              H 1  -- N 1                   -0.11        2.10995
              H 7  -- C 3                   -0.14        2.13404
              H 17 -- C 2                   -0.14        2.15498
              H 4  -- C 1                   -0.14        2.15589
              H 7  -- C 5                   -0.13        2.15690
              H 4  -- C 6                   -0.12        2.15828
              H 3  -- C 1                   -0.14        2.16300
              H 16 -- C 2                   -0.13        2.16460
              H 8  -- C 3                   -0.13        2.16486
              H 3  -- C 6                   -0.12        2.16743
              H 17 -- C 7                   -0.13        2.16795
              H 16 -- C 7                   -0.13        2.17055
              H 10 -- C 4                   -0.12        2.17386
              H 18 -- C 6                   -0.12        2.17643
              H 19 -- C 6                   -0.12        2.17745
              H 2  -- C 2                   -0.12        2.17947
              H 20 -- C 6                   -0.12        2.17948
              H 1  -- C 2                   -0.12        2.18743
              H 8  -- C 5                   -0.13        2.18800
              H 6  -- C 4                   -0.12        2.18902
              H 1  -- H 9                   -0.04        2.19207
              H 5  -- C 4                   -0.12        2.19398
              H 9  -- C 4                   -0.11        2.19929
              H 11 -- Si 1                  -0.14        2.27315
              H 13 -- Si 1                  -0.13        2.28248
              H 12 -- Si 1                  -0.14        2.29794
              H 5  -- H 7                   -0.06        2.32067
              H 5  -- H 15                  -0.03        2.32777
              H 4  -- H 15                  -0.01        2.36909
              H 1  -- H 14                  -0.04        2.37133
              H 5  -- H 14                  -0.03        2.37445
              H 8  -- H 14                  -0.01        2.39559
              H 6  -- H 15                  -0.03        2.40245
              H 2  -- H 15                  -0.03        2.43636
              H 9  -- Si 1                  -0.12        2.43956
              H 7  -- H 10                  -0.04        2.46990
              H 10 -- Si 1                  -0.11        2.47741
               C 2 -- N 1                   -0.14        2.48302
              H 4  -- H 17                  -0.03        2.50005
              H 17 -- H 18                  -0.03        2.50089
              H 3  -- H 14                  -0.00        2.50890
              H 3  -- H 16                  -0.03        2.51581
              H 16 -- H 19                  -0.03        2.51988
              H 16 -- H 18                  -0.03        2.52191
               C 1 -- C 6                   -0.15        2.52210
              H 1  -- H 3                   -0.03        2.52218
              H 2  -- H 6                   -0.01        2.52263
              H 4  -- H 20                  -0.01        2.52718
               C 2 -- C 7                   -0.16        2.52830
              H 2  -- H 4                   -0.03        2.52881
               C 4 -- N 1                   -0.13        2.53474
              H 2  -- H 17                  -0.01        2.53597
              H 17 -- H 20                  -0.03        2.53719
              H 1  -- H 8                   -0.01        2.54313
              H 2  -- H 9                   -0.02        2.57176
               C 1 -- C 3                   -0.12        2.58588
               C 3 -- C 5                   -0.15        2.58673
              H 3  -- H 19                  -0.01        2.58721
              H 8  -- N 1                   -0.05        2.58795
              H 6  -- H 10                  -0.01        2.58840
              H 15 -- C 2                   -0.04        2.60492
              H 8  -- H 9                   -0.02        2.62597
              H 1  -- H 16                  -0.01        2.62605
               O 2 -- O 3                   -0.08        2.64181
              H 6  -- C 5                   -0.06        2.66547
              H 14 -- C 2                   -0.03        2.68523
              H 4  -- N 1                   -0.03        2.69245
              H 5  -- H 8                    0.00        2.71068
              H 17 -- C 1                   -0.04        2.72993
              H 14 -- C 4                   -0.03        2.73588
              H 6  -- H 7                    0.00        2.73903
              H 4  -- C 7                   -0.04        2.74007
              H 3  -- N 1                   -0.02        2.74182
               O 1 -- O 2                   -0.08        2.74679
              H 2  -- C 3                   -0.03        2.75160
              H 11 -- O 2                   -0.01        2.75692
              H 16 -- C 1                   -0.04        2.75887
              H 3  -- C 7                   -0.04        2.76481
              H 9  -- C 1                   -0.05        2.76561
               C 5 -- O 3                   -0.11        2.77452
              H 20 -- C 2                   -0.04        2.77536
              H 6  -- H 9                   -0.01        2.77715
              H 2  -- C 6                   -0.03        2.78558
              H 1  -- C 4                   -0.02        2.78746
               O 1 -- O 3                   -0.06        2.79156
               C 5 -- O 1                   -0.10        2.79477
              H 19 -- C 2                   -0.04        2.80447
              H 6  -- C 1                   -0.03        2.80587
              H 1  -- C 3                   -0.02        2.82569
              H 8  -- O 3                    0.00        2.83146
               C 4 -- Si 1                  -0.16        2.83237
              H 9  -- C 3                   -0.03        2.83569
              H 1  -- C 6                   -0.03        2.83764
              H 13 -- O 1                   -0.01        2.86877
              H 1  -- C 5                   -0.03        2.87105
              H 10 -- C 3                   -0.04        2.87843
              H 9  -- O 3                   -0.01        2.90845
              H 10 -- O 1                   -0.01        2.92609
               C 5 -- O 2                   -0.09        2.93892
              H 8  -- Si 1                  -0.06        2.93950
              H 3  -- H 15                  -0.00        2.94490
              H 2  -- H 14                   0.03        2.94699
              H 7  -- O 2                    0.00        2.95114
              H 1  -- H 15                   0.03        2.95341
              H 6  -- H 14                   0.03        2.95829
======================================================================
 
 
     Hirshfeld Analysis
     ------------------
Species   Ion     Hirshfeld Charge (e)
======================================
  H        1                 0.07
  H        2                 0.07
  H        3                 0.05
  H        4                 0.05
  H        5                 0.07
  H        6                 0.07
  H        7                 0.06
  H        8                 0.04
  H        9                 0.04
  H       10                 0.05
  H       11                 0.17
  H       12                 0.18
  H       13                 0.17
  H       14                 0.18
  H       15                 0.18
  H       16                 0.05
  H       17                 0.05
  H       18                 0.06
  H       19                 0.04
  H       20                 0.05
  C        1                 0.01
  C        2                -0.06
  C        3                 0.02
  C        4                -0.06
  C        5                -0.15
  C        6                -0.05
  C        7                -0.10
  N        1                 0.04
  O        1                -0.28
  O        2                -0.28
  O        3                -0.29
  Si       1                 0.47
======================================
 

Writing analysis data to Conf_0034.castep_bin

Writing model to Conf_0034.check
 
 A BibTeX formatted list of references used in this run has been written to 
 Conf_0034.bib
 
Initialisation time =     25.34 s
Calculation time    =   1620.14 s
Finalisation time   =      1.07 s
Total time          =   1646.55 s
Peak Memory Use     = 7921964 kB
 
Overall parallel efficiency rating: Satisfactory (68%)
 
Data was distributed by:-
G-vector (48-way); efficiency rating: Satisfactory (68%)
High Water Mark     = 1913424 kB
