 Job started on host drago31060177.mgmt.cc.csic.es
 at Sun Mar 31 01:00:38 2024

 +-------------------------------------------------+
 |                                                 |
 |      CCC   AA    SSS  TTTTT  EEEEE  PPPP        |
 |     C     A  A  S       T    E      P   P       |
 |     C     AAAA   SS     T    EEE    PPPP        |
 |     C     A  A     S    T    E      P           |
 |      CCC  A  A  SSS     T    EEEEE  P           |
 |                                                 |
 +-------------------------------------------------+
 |                                                 |
 | Materials Studio CASTEP version 2024            |
 | Ab Initio Total Energy Program                  |
 |                                                 |
 | Authors:                                        |
 | M. Segall, M. Probert, C. Pickard, P. Hasnip,   |
 | S. Clark, K. Refson, J. R. Yates,               |
 | A. Bartok-Partay, M. Payne                      |
 |                                                 |
 | Contributors:                                   |
 | P. Lindan, P. Haynes, J. White, V. Milman,      |
 | N. Govind, M. Gibson, P. Tulip, V. Cocula,      |
 | B. Montanari, D. Quigley, M. Glover,            |
 | L. Bernasconi, A. Perlov, M. Plummer,           |
 | E. McNellis, J. Meyer, J. Gale, D. Jochym       |
 | J. Aarons, B. Walker, R. Gillen, D. Jones       |
 | T. Green, I. J. Bush, C. J. Armstrong,          |
 | E. J. Higgins, E. L. Brown, M. S. McFly,        |
 | J. Wilkins, B-C. Shih, P. J. P. Byrne,          |
 | R. J. Maurer, J. C. Womack, J. Dziedzic,        |
 | L. LeBlanc, T. K. Stenczel, J. Kermode,         |
 | S. Sturniolo, B. Shi, B. Durham, M. Evans,      |
 | M. J. Smith, A. Tamerus, Z. Hawkhead,           |
 | V. Ravindran, T. Hollins, S. A. Joyce,          |
 | R. T. Strong, A. M. Reilly                      |
 |                                                 |
 | Copyright (c) 2000 - 2023                       |
 |                                                 |
 | Please cite                                     |
 |                                                 |
 |     "First principles methods using CASTEP"     |
 |                                                 |
 |         Zeitschrift fuer Kristallographie       |
 |           220(5-6) pp. 567-570 (2005)           |
 |                                                 |
 | S. J. Clark, M. D. Segall, C. J. Pickard,       |
 | P. J. Hasnip, M. J. Probert, K. Refson,         |
 | M. C. Payne                                     |
 |                                                 |
 |       in all publications arising from          |
 |              your use of CASTEP                 |
 |                                                 |
 +-------------------------------------------------+
 |                                                 |
 |              http://www.castep.org              |
 |                                                 |
 +-------------------------------------------------+
 
 
 This version was compiled for x86_64-rhel7-intel19.0 on Oct 24 2023
 Code version:    a9f326b
 Intel(R) Math Kernel Library Version 2019.0.4 
 Fundamental constants values: CODATA 2018
 
License checkout of MS_castep successful
 
 
 Atomic calculation performed for H: 1s1
 
 Converged in 41 iterations to an ae energy of -12.488 eV
 
 Identity difference: 2.63E-05
 
   ============================================================                
   | Pseudopotential Report - Date of generation 31-03-2024   |                
   ------------------------------------------------------------                
   | Element: H Ionic charge:  1.00 Level of theory: PBE      |                
   | Atomic Solver: Koelling-Harmon                           |                
   |                                                          |                
   |               Reference Electronic Structure             |                
   |         Orbital         Occupation         Energy        |                
   |            1s              1.000           -0.239        |                
   |                                                          |                
   |                 Pseudopotential Definition               |                
   |        Beta     l      e      Rc     scheme   norm       |                
   |          1      0   -0.239   0.599     qc      0         |                
   |          2      0    0.250   0.599     qc      0         |                
   |         loc     1    0.000   0.599     pn      0         |                
   |                                                          |                
   | Augmentation charge Rinner = 0.421                       |                
   | No partial core correction                               |                
   ------------------------------------------------------------                
   | "1|0.6|9|10|15|10UU(qc=8)[]"                             |                
   ------------------------------------------------------------                
   |      Author: Chris J. Pickard, Cambridge University      |                
   ============================================================                
 
 Doing a self consistent calculation for the test configuration
 
 Atomic calculation performed for H: 1s1
 
 Converged in 41 iterations to an ae energy of -12.488 eV
 
 ---------------------------------------
 AE eigenvalue nl 10 =       -0.23860176
 ---------------------------------------
 PS eigenvalue nl 10 =       -0.23857601
 ---------------------------------------
 Maximum eigenvalue error:   2.57E-05
 
 Derived cutoff energies: C=   1 M=   6 F=  10 E=  20
 
 Checking for ghost states up to   1.51185 Ha
 
 No Ghost States Identified
 
 ***************************************
 
 Atomic calculation performed for C: 1s2 2s2 2p2
 
 Converged in 54 iterations to an ae energy of -1027.632 eV
 
 Identity difference: 2.37E-04
 
   ============================================================                
   | Pseudopotential Report - Date of generation 31-03-2024   |                
   ------------------------------------------------------------                
   | Element: C Ionic charge:  4.00 Level of theory: PBE      |                
   | Atomic Solver: Koelling-Harmon                           |                
   |                                                          |                
   |               Reference Electronic Structure             |                
   |         Orbital         Occupation         Energy        |                
   |            2s              2.000           -0.505        |                
   |            2p              2.000           -0.194        |                
   |                                                          |                
   |                 Pseudopotential Definition               |                
   |        Beta     l      e      Rc     scheme   norm       |                
   |          1      0   -0.505   1.395     qc      0         |                
   |          2      0    0.250   1.395     qc      0         |                
   |          3      1   -0.194   1.395     qc      0         |                
   |          4      1    0.250   1.395     qc      0         |                
   |         loc     2    0.000   1.395     pn      0         |                
   |                                                          |                
   | Augmentation charge Rinner = 0.983                       |                
   | Partial core correction Rc = 0.983                       |                
   ------------------------------------------------------------                
   | "2|1.4|11|12|14.7|20UU:21UU(qc=7)[]"                     |                
   ------------------------------------------------------------                
   |      Author: Chris J. Pickard, Cambridge University      |                
   ============================================================                
 
 Doing a self consistent calculation for the test configuration
 
 Atomic calculation performed for C: 1s2 2s2 2p2
 
 Converged in 54 iterations to an ae energy of -1027.632 eV
 
 ---------------------------------------
 AE eigenvalue nl 10 =      -10.04653081
 AE eigenvalue nl 20 =       -0.50533429
 AE eigenvalue nl 21 =       -0.19423807
 ---------------------------------------
 PS eigenvalue nl 20 =       -0.50531853
 PS eigenvalue nl 21 =       -0.19422214
 ---------------------------------------
 Maximum eigenvalue error:   1.59E-05
 
 Derived cutoff energies: C=   6 M=  10 F=  12 E=  16
 
 Checking for ghost states up to   1.47183 Ha
 
 No Ghost States Identified
 
 ***************************************
 
 Atomic calculation performed for N: 1s2 2s2 2p3
 
 Converged in 55 iterations to an ae energy of -1481.742 eV
 
 Identity difference: 2.27E-04
 
   ============================================================                
   | Pseudopotential Report - Date of generation 31-03-2024   |                
   ------------------------------------------------------------                
   | Element: N Ionic charge:  5.00 Level of theory: PBE      |                
   | Atomic Solver: Koelling-Harmon                           |                
   |                                                          |                
   |               Reference Electronic Structure             |                
   |         Orbital         Occupation         Energy        |                
   |            2s              2.000           -0.683        |                
   |            2p              3.000           -0.261        |                
   |                                                          |                
   |                 Pseudopotential Definition               |                
   |        Beta     l      e      Rc     scheme   norm       |                
   |          1      0   -0.683   1.100     qc      0         |                
   |          2      0    0.250   1.100     qc      0         |                
   |          3      1   -0.261   1.100     qc      0         |                
   |          4      1    0.250   1.100     qc      0         |                
   |         loc     2    0.000   1.100     pn      0         |                
   |                                                          |                
   | Augmentation charge Rinner = 0.769                       |                
   | Partial core correction Rc = 0.769                       |                
   ------------------------------------------------------------                
   | "2|1.1|12|16|19|20UU:21UU(qc=7)[]"                       |                
   ------------------------------------------------------------                
   |      Author: Chris J. Pickard, Cambridge University      |                
   ============================================================                
 
 Doing a self consistent calculation for the test configuration
 
 Atomic calculation performed for N: 1s2 2s2 2p3
 
 Converged in 55 iterations to an ae energy of -1481.742 eV
 
 ---------------------------------------
 AE eigenvalue nl 10 =      -14.13820921
 AE eigenvalue nl 20 =       -0.68290611
 AE eigenvalue nl 21 =       -0.26054797
 ---------------------------------------
 PS eigenvalue nl 20 =       -0.68291221
 PS eigenvalue nl 21 =       -0.26051708
 ---------------------------------------
 Maximum eigenvalue error:   3.09E-05
 
 Derived cutoff energies: C=  10 M=  15 F=  18 E=  23
 
 Checking for ghost states up to   1.48495 Ha
 
 No Ghost States Identified
 
 ***************************************
 
 Atomic calculation performed for O: 1s2 2s2 2p4
 
 Converged in 61 iterations to an ae energy of -2040.902 eV
 
 Identity difference: 4.10E-04
 
   ============================================================                
   | Pseudopotential Report - Date of generation 31-03-2024   |                
   ------------------------------------------------------------                
   | Element: O Ionic charge:  6.00 Level of theory: PBE      |                
   | Atomic Solver: Koelling-Harmon                           |                
   |                                                          |                
   |               Reference Electronic Structure             |                
   |         Orbital         Occupation         Energy        |                
   |            2s              2.000           -0.881        |                
   |            2p              4.000           -0.332        |                
   |                                                          |                
   |                 Pseudopotential Definition               |                
   |        Beta     l      e      Rc     scheme   norm       |                
   |          1      0   -0.881   1.100     qc      0         |                
   |          2      0    0.250   1.100     qc      0         |                
   |          3      1   -0.332   1.100     qc      0         |                
   |          4      1    0.250   1.100     qc      0         |                
   |         loc     2    0.000   1.100     pn      0         |                
   |                                                          |                
   | Augmentation charge Rinner = 0.769                       |                
   | Partial core correction Rc = 0.769                       |                
   ------------------------------------------------------------                
   | "2|1.1|14|18|21|20UU:21UU(qc=7)[]"                       |                
   ------------------------------------------------------------                
   |      Author: Chris J. Pickard, Cambridge University      |                
   ============================================================                
 
 Doing a self consistent calculation for the test configuration
 
 Atomic calculation performed for O: 1s2 2s2 2p4
 
 Converged in 61 iterations to an ae energy of -2040.902 eV
 
 ---------------------------------------
 AE eigenvalue nl 10 =      -18.91475256
 AE eigenvalue nl 20 =       -0.88057101
 AE eigenvalue nl 21 =       -0.33186952
 ---------------------------------------
 PS eigenvalue nl 20 =       -0.88059206
 PS eigenvalue nl 21 =       -0.33182157
 ---------------------------------------
 Maximum eigenvalue error:   4.80E-05
 
 Derived cutoff energies: C=  14 M=  17 F=  20 E=  22
 
 Checking for ghost states up to   1.49452 Ha
 
 No Ghost States Identified
 
 ***************************************
 
 Atomic calculation performed for Si: 1s2 2s2 2p6 3s2 3p2
 
 Converged in 54 iterations to an ae energy of -7886.857 eV
 
 Identity difference: 1.35E-04
 
   ============================================================                
   | Pseudopotential Report - Date of generation 31-03-2024   |                
   ------------------------------------------------------------                
   | Element: Si Ionic charge:  4.00 Level of theory: PBE     |                
   | Atomic Solver: Koelling-Harmon                           |                
   |                                                          |                
   |               Reference Electronic Structure             |                
   |         Orbital         Occupation         Energy        |                
   |            3s              2.000           -0.397        |                
   |            3p              2.000           -0.150        |                
   |                                                          |                
   |                 Pseudopotential Definition               |                
   |        Beta     l      e      Rc     scheme   norm       |                
   |          1      0   -0.397   1.797     qc      0         |                
   |          2      0    0.250   1.797     qc      0         |                
   |          3      1   -0.150   1.797     qc      0         |                
   |          4      1    0.250   1.797     qc      0         |                
   |          5      2    0.000   1.797     qc      0         |                
   |          6      2    0.250   1.797     qc      0         |                
   |         loc     3    0.000   1.797     pn      0         |                
   |                                                          |                
   | Augmentation charge Rinner = 1.255                       |                
   | Partial core correction Rc = 1.255                       |                
   ------------------------------------------------------------                
   | "3|1.8|3.6|5|7|30UU:31UU:32UU[]"                         |                
   ------------------------------------------------------------                
   |      Author: Chris J. Pickard, Cambridge University      |                
   ============================================================                
 
 Doing a self consistent calculation for the test configuration
 
 Atomic calculation performed for Si: 1s2 2s2 2p6 3s2 3p2
 
 Converged in 54 iterations to an ae energy of -7886.857 eV
 
 ---------------------------------------
 AE eigenvalue nl 10 =      -65.63192903
 AE eigenvalue nl 20 =       -5.12654326
 AE eigenvalue nl 21 =       -3.51173659
 AE eigenvalue nl 30 =       -0.39736430
 AE eigenvalue nl 31 =       -0.14998156
 ---------------------------------------
 PS eigenvalue nl 30 =       -0.39734922
 PS eigenvalue nl 31 =       -0.14996719
 ---------------------------------------
 Maximum eigenvalue error:   1.51E-05
 
 Derived cutoff energies: C=   1 M=   3 F=   6 E=   6
 
 Checking for ghost states up to   1.41161 Ha
 
 No Ghost States Identified
 
 ***************************************
 
 Pseudo atomic calculation performed for H 1s1
 
 Converged in 13 iterations to a total energy of -12.4790 eV
 
 Pseudo atomic calculation performed for C 2s2 2p2
 
 Converged in 17 iterations to a total energy of -148.5208 eV
 
 Pseudo atomic calculation performed for N 2s2 2p3
 
 Converged in 21 iterations to a total energy of -268.1820 eV
 
 Pseudo atomic calculation performed for O 2s2 2p4
 
 Converged in 23 iterations to a total energy of -432.6536 eV
 
 Pseudo atomic calculation performed for Si 3s2 3p2
 
 Converged in 11 iterations to a total energy of -165.0683 eV
 Calculation parallelised over 48 processes.
 Data is distributed by G-vector(48-way)

 ************************************ Title ************************************
 CASTEP calculation from BIOVIA Materials Studio 2024

 ***************************** General Parameters ******************************
  
 output verbosity                               : normal  (1)
 write checkpoint data to                       : Conf_0010.check
 type of calculation                            : geometry optimization
 stress calculation                             : off
 density difference calculation                 : off
 electron localisation func (ELF) calculation   : off
 Hirshfeld analysis                             : on
 polarisation (Berry phase) analysis            : off
 molecular orbital projected DOS                : off
 deltaSCF calculation                           : off
 unlimited duration calculation
 timing information                             : on
 memory usage estimate                          : on
 write extra output files                       : on
 write final potential to formatted file        : off
 write final density to formatted file          : off
 write BibTeX reference list                    : on
 write OTFG pseudopotential files               : on
 write electrostatic potential file             : on
 write bands file                               : on
 checkpoint writing                             : both castep_bin and check files
  
 output         length unit                     : A
 output           mass unit                     : amu
 output           time unit                     : ps
 output         charge unit                     : e
 output           spin unit                     : hbar/2
 output         energy unit                     : eV
 output          force unit                     : eV/A
 output       velocity unit                     : A/ps
 output       pressure unit                     : GPa
 output     inv_length unit                     : 1/A
 output      frequency unit                     : cm-1
 output force constant unit                     : eV/A**2
 output         volume unit                     : A**3
 output   IR intensity unit                     : (D/A)**2/amu
 output         dipole unit                     : D
 output         efield unit                     : eV/A/e
 output        entropy unit                     : J/mol/K
 output    efield chi2 unit                     : pm/V
  
 wavefunctions paging                           : none
 random number generator seed                   :   10041080
 data distribution                              : optimal for this architecture
 optimization strategy                          : balance speed and memory

 *********************** Exchange-Correlation Parameters ***********************
  
 using functional                               : Perdew Burke Ernzerhof
 relativistic treatment                         : Koelling-Harmon
 DFT+D: Semi-empirical dispersion correction    : on
 SEDC with                                      : G06 correction scheme

 ************************* Pseudopotential Parameters **************************
  
 pseudopotential representation                 : reciprocal space
 <beta|phi> representation                      : reciprocal space
 spin-orbit coupling                            : off

 **************************** Basis Set Parameters *****************************
  
 plane wave basis set cut-off                   :   600.0000   eV
 size of standard grid                          :     1.5000
 size of   fine   gmax                          :    18.8237   1/A
 largest prime factor in FFT                    :          5
 finite basis set correction                    : none

 **************************** Electronic Parameters ****************************
  
 number of  electrons                           :  74.00    
 net charge of system                           : +1.000    
 treating system as non-spin-polarized
 number of bands                                :         37

 ********************* Electronic Minimization Parameters **********************
  
 Method: Treating system as non-metallic,
         and number of  SD  steps               :          1
         and number of  CG  steps               :          4
  
 total energy / atom convergence tol.           : 0.2000E-05   eV
 eigen-energy convergence tolerance             : 0.1000E-05   eV
 max force / atom convergence tol.              : ignored
 convergence tolerance window                   :          3   cycles
 max. number of SCF cycles                      :        100
 periodic dipole correction                     : NONE

 ************************** Density Mixing Parameters **************************
  
 density-mixing scheme                          : Pulay
 max. length of mixing history                  :         20
 charge density mixing amplitude                : 0.5000    
 cut-off energy for mixing                      :  600.0       eV
 charge density mixing g-vector                 :  1.500       1/A

 *********************** Population Analysis Parameters ************************
  
 Population analysis with cutoff                :  3.000       A
 Population analysis output                     : summary and pdos components

 ********************** Geometry Optimization Parameters ***********************
  
 optimization method                            : LBFGS
 max. no. of LBFGS updates                      : unbounded
 preconditioned LBFGS is activated
 preconditioner type                            : EXP
     stabilization constant                     :     0.1000
     parameter A                                :     3.0000
     nearest neighbor distance                  : automatic
     cut-off distance                           : automatic
     parameter mu                               : automatic
 variable cell method                           : fixed basis quality
 max. number of steps                           :        300
 estimated bulk modulus                         :  500.0       GPa
 estimated <frequency>                          :  1668.       cm-1
 geom line minimiser                            : on
 with line minimiser tolerance                  :     0.4000
 total energy convergence tolerance             : 0.2000E-04   eV/atom
        max ionic |force| tolerance             : 0.5000E-01   eV/A
 max ionic |displacement| tolerance             : 0.2000E-02   A
   max |stress component| tolerance             : 0.1000       GPa
 convergence tolerance window                   :          2   steps
 backup results every                           :          5   steps
 write geom trajectory file                     : on

 *******************************************************************************
  
 
                           -------------------------------
                                      Unit Cell
                           -------------------------------
        Real Lattice(A)                      Reciprocal Lattice(1/A)
    13.4840002    -0.0000006    -0.0000006        0.465973392   0.000000000   0.000000000
     0.0000000    20.4006996    -0.0000009        0.000000013   0.307988717   0.000000000
     0.0000000     0.0000000    45.0000000        0.000000006   0.000000006   0.139626340
 
                       Lattice parameters(A)       Cell Angles
                    a =     13.484000          alpha =   90.000003
                    b =     20.400700          beta  =   90.000003
                    c =     45.000000          gamma =   90.000003
 
                       Current cell volume =         12378.736702       A**3
                                   density =             0.015698   AMU/A**3
                                           =             0.026068     g/cm^3
 
                           -------------------------------
                                     Cell Contents
                           -------------------------------
                         Total number of ions in cell =   32
                      Total number of species in cell =    5
                        Max number of any one species =   20
 
            xxxxxxxxxxxxxxxxxxxxxxxxxxxxxxxxxxxxxxxxxxxxxxxxxxxxxxxxxxxx
            x  Element    Atom        Fractional coordinates of atoms  x
            x            Number           u          v          w      x
            x----------------------------------------------------------x
            x  H            1         0.510084   0.451195   0.553322   x 
            x  H            2         0.537000   0.537382   0.554186   x 
            x  H            3         0.376299   0.467548   0.591754   x 
            x  H            4         0.400903   0.553132   0.592337   x 
            x  H            5         0.379950   0.533107   0.488740   x 
            x  H            6         0.500758   0.549763   0.502817   x 
            x  H            7         0.411883   0.415782   0.485187   x 
            x  H            8         0.522087   0.420886   0.506334   x 
            x  H            9         0.565251   0.409863   0.453701   x 
            x  H           10         0.604508   0.486708   0.467034   x 
            x  H           11         0.390477   0.427002   0.400227   x 
            x  H           12         0.524462   0.534151   0.383973   x 
            x  H           13         0.396365   0.596583   0.425866   x 
            x  H           14         0.344708   0.477540   0.535277   x 
            x  H           15         0.365281   0.556701   0.538043   x 
            x  H           16         0.549647   0.445452   0.609817   x 
            x  H           17         0.574211   0.530733   0.610220   x 
            x  H           18         0.532447   0.491089   0.661003   x 
            x  H           19         0.416107   0.460978   0.648408   x 
            x  H           20         0.439995   0.546887   0.648693   x 
            x  C            1         0.478737   0.500176   0.557621   x 
            x  C            2         0.435206   0.504594   0.588871   x 
            x  C            3         0.439895   0.513551   0.502884   x 
            x  C            4         0.475785   0.447741   0.490206   x 
            x  C            5         0.537660   0.457852   0.461533   x 
            x  C            6         0.514622   0.493977   0.612822   x 
            x  C            7         0.473402   0.498491   0.644382   x 
            x  N            1         0.397188   0.512800   0.533885   x 
            x  O            1         0.547588   0.513441   0.401508   x 
            x  O            2         0.427423   0.569464   0.440294   x 
            x  O            3         0.380034   0.455608   0.416579   x 
            x  Si           1         0.472288   0.499274   0.428991   x 
            xxxxxxxxxxxxxxxxxxxxxxxxxxxxxxxxxxxxxxxxxxxxxxxxxxxxxxxxxxxx
 
 
                         No user defined ionic velocities
 
                           -------------------------------
                                   Details of Species
                           -------------------------------
 
                               Mass of species in AMU
                                    H    1.0080000
                                    C   12.0109997
                                    N   14.0070000
                                    O   15.9989996
                                    Si   28.0849991
 
                          Electric Quadrupole Moment (Barn)
                                    H    0.0028600 Isotope  2
                                    C    0.0332700 Isotope 11
                                    N    0.0204400 Isotope 14
                                    O   -0.0255800 Isotope 17
                                    Si    1.0000000 No Isotope Defined
 
                          Files used for pseudopotentials:
                                    H 1|0.6|9|10|15|10UU(qc=8)[]
                                    C 2|1.4|11|12|14.7|20UU:21UU(qc=7)[]
                                    N 2|1.1|12|16|19|20UU:21UU(qc=7)[]
                                    O 2|1.1|14|18|21|20UU:21UU(qc=7)[]
                                    Si 3|1.8|3.6|5|7|30UU:31UU:32UU[]
 
                           -------------------------------
                              k-Points For BZ Sampling
                           -------------------------------
                       MP grid size for SCF calculation is  1  1  1
                            with an offset of   0.000  0.000  0.000
                       Number of kpoints used =             1
 
                           -------------------------------
                               Symmetry and Constraints
                           -------------------------------
 
                      Maximum deviation from symmetry =  0.00000         ANG
 
                      Number of symmetry operations   =           1
                      Number of nonlinear constraints =           3
         There are no ionic constraints specified or generated for this cell
                      Point group of crystal =     1: C1, 1, 1
                      Space group of crystal =     1: P1, P 1
 
             Set iprint > 1 for details on symmetry rotations/translations
 
                         Centre of mass is NOT constrained
 
                         Number of cell constraints= 6
                         Cell constraints are:  0 0 0 0 0 0
 
                         External pressure/stress (GPa)
                          0.00000   0.00000   0.00000
                                    0.00000   0.00000
                                              0.00000
 
                                --------------------
                                  DFT-D parameters
                                --------------------
 
                          Dispersion-correction scheme : G06       
                        Parameter s6 :   0.750000 (default)
                        Parameter d  :  20.000000 (default)
 
        xxxxxxxxxxxxxxxxxxxxxxxxxxxxxxxxxxxxxxxxxxxxxxxxxxxxxxxxxxxxxxxxxxxx
        x              Atomic DFT-D parameters                             x
        x  Species      C6            R0                                   x
        x               eV A^6        Ang                                  x
        x------------------------------------------------------------------x
        x  H             1.4510       1.0010   (default)                   x
        x  C            18.1375       1.4520   (default)                   x
        x  N            12.7481       1.3970   (default)                   x
        x  O             7.2550       1.3420   (default)                   x
        x  Si           95.6622       1.7160   (default)                   x
        xxxxxxxxxxxxxxxxxxxxxxxxxxxxxxxxxxxxxxxxxxxxxxxxxxxxxxxxxxxxxxxxxxxx
 
 
+---------------- MEMORY AND SCRATCH DISK ESTIMATES PER PROCESS --------------+
|                                                     Memory          Disk    |
| Baseline code, static data and system overhead     6530.0 MB         0.0 MB |
| BLAS internal memory storage                          0.0 MB         0.0 MB |
| Model and support data                              540.6 MB         0.0 MB |
| Electronic energy minimisation requirements          31.8 MB         0.0 MB |
| Force calculation requirements                        6.8 MB         0.0 MB |
|                                               ----------------------------- |
| Approx. total storage required per process         7102.3 MB         0.0 MB |
|                                                                             |
| Requirements will fluctuate during execution and may exceed these estimates |
+-----------------------------------------------------------------------------+
Calculating approximate eigenstates for fixed initial Hamiltonian
Cut-off for approx. calculation is  119.774 eV
Improving approx. states at cut-off of  300.000 eV
Resetting cut-off to  600.000 eV
Calculating total energy with cut-off of  600.000 eV.
------------------------------------------------------------------------ <-- SCF
SCF loop      Energy                           Energy gain       Timer   <-- SCF
                                               per atom          (sec)   <-- SCF
------------------------------------------------------------------------ <-- SCF
Initial  -2.92630608E+003                                         31.27  <-- SCF
      1  -3.20281895E+003                    8.64102736E+000      32.11  <-- SCF
      2  -3.20312244E+003                    9.48393290E-003      32.90  <-- SCF
      3  -3.19280561E+003                   -3.22400822E-001      34.08  <-- SCF
      4  -3.19159794E+003                   -3.77397724E-002      35.27  <-- SCF
      5  -3.19099411E+003                   -1.88696375E-002      36.31  <-- SCF
      6  -3.19090361E+003                   -2.82820953E-003      37.63  <-- SCF
      7  -3.19084538E+003                   -1.81967317E-003      38.66  <-- SCF
      8  -3.19084041E+003                   -1.55169641E-004      39.81  <-- SCF
      9  -3.19083157E+003                   -2.76290342E-004      40.83  <-- SCF
     10  -3.19082019E+003                   -3.55739447E-004      41.90  <-- SCF
     11  -3.19079683E+003                   -7.29866682E-004      42.98  <-- SCF
     12  -3.19074090E+003                   -1.74782887E-003      44.03  <-- SCF
     13  -3.19066980E+003                   -2.22178609E-003      45.09  <-- SCF
     14  -3.19061128E+003                   -1.82875979E-003      46.14  <-- SCF
     15  -3.19056428E+003                   -1.46902339E-003      47.14  <-- SCF
     16  -3.19052281E+003                   -1.29584101E-003      48.15  <-- SCF
     17  -3.19049215E+003                   -9.58112392E-004      49.15  <-- SCF
     18  -3.19046414E+003                   -8.75247973E-004      50.16  <-- SCF
     19  -3.19043890E+003                   -7.88731539E-004      51.15  <-- SCF
     20  -3.19041958E+003                   -6.03760267E-004      52.15  <-- SCF
     21  -3.19039329E+003                   -8.21556914E-004      53.16  <-- SCF
     22  -3.19038288E+003                   -3.25406150E-004      54.27  <-- SCF
     23  -3.19038060E+003                   -7.12953661E-005      55.33  <-- SCF
     24  -3.19037795E+003                   -8.26642799E-005      56.29  <-- SCF
     25  -3.19038094E+003                    9.33734166E-005      57.23  <-- SCF
     26  -3.19038444E+003                    1.09424169E-004      58.05  <-- SCF
     27  -3.19039045E+003                    1.87796024E-004      58.93  <-- SCF
     28  -3.19039468E+003                    1.32011649E-004      59.74  <-- SCF
     29  -3.19039758E+003                    9.07422920E-005      60.56  <-- SCF
     30  -3.19040066E+003                    9.63536650E-005      61.36  <-- SCF
     31  -3.19040260E+003                    6.04999054E-005      62.17  <-- SCF
     32  -3.19040473E+003                    6.67720398E-005      62.98  <-- SCF
     33  -3.19040579E+003                    3.30442963E-005      63.79  <-- SCF
     34  -3.19040685E+003                    3.29391482E-005      64.60  <-- SCF
     35  -3.19040763E+003                    2.45301376E-005      65.41  <-- SCF
     36  -3.19040830E+003                    2.07618066E-005      66.22  <-- SCF
     37  -3.19040899E+003                    2.15699012E-005      67.08  <-- SCF
     38  -3.19040929E+003                    9.47811200E-006      67.89  <-- SCF
     39  -3.19040963E+003                    1.07066769E-005      68.70  <-- SCF
     40  -3.19040998E+003                    1.08623237E-005      69.52  <-- SCF
     41  -3.19041014E+003                    5.11336807E-006      70.32  <-- SCF
     42  -3.19041037E+003                    7.20742495E-006      71.13  <-- SCF
     43  -3.19041048E+003                    3.37510022E-006      71.94  <-- SCF
     44  -3.19041059E+003                    3.44113396E-006      72.75  <-- SCF
     45  -3.19041064E+003                    1.60053989E-006      73.56  <-- SCF
     46  -3.19041070E+003                    1.73591523E-006      74.37  <-- SCF
     47  -3.19041072E+003                    7.09915470E-007      75.18  <-- SCF
     48  -3.19041075E+003                    8.01468415E-007      75.99  <-- SCF
------------------------------------------------------------------------ <-- SCF
 
Final energy =  -3190.410747040     eV
(energy not corrected for finite basis set)
 
(SEDC) Total Energy Correction : -0.767028E+00 eV

Dispersion corrected final energy* =  -3191.177774732     eV

Writing analysis data to Conf_0010.castep_bin

Writing model to Conf_0010.check

WARNING - nonlinear constraints cannot be used with LBFGS algorithm
        - consider setting geom_method=DELOCALIZED
 
        => Turning nonlinear constraints OFF
 
+---------------- MEMORY AND SCRATCH DISK ESTIMATES PER PROCESS --------------+
|                                                     Memory          Disk    |
| Model and support data                              550.1 MB         0.0 MB |
| Electronic energy minimisation requirements          31.8 MB         0.0 MB |
| Geometry minimisation requirements                   34.8 MB         0.0 MB |
|                                               ----------------------------- |
| Approx. total storage required per process          616.7 MB         0.0 MB |
|                                                                             |
| Requirements will fluctuate during execution and may exceed these estimates |
+-----------------------------------------------------------------------------+
 
 
 ************************************** Forces **************************************
 *                                                                                  *
 *                           Cartesian components (eV/A)                            *
 * -------------------------------------------------------------------------------- *
 *                         x                    y                    z              *
 *                                                                                  *
 * H               1     -0.14815              0.19147             -0.13554         *
 * H               2     -0.22974             -0.05189             -0.13326         *
 * H               3      0.00633              0.02244             -0.01332         *
 * H               4     -0.01254              0.02421             -0.02936         *
 * H               5      0.22357              0.00125             -0.02324         *
 * H               6     -0.19284             -0.12744              0.14469         *
 * H               7     -0.01408              0.07604              0.05287         *
 * H               8     -0.01327              0.11062              0.07095         *
 * H               9     -0.15120              0.12536              0.06660         *
 * H              10     -0.04776             -0.04611             -0.04555         *
 * H              11      0.13197             -0.62033             -0.74803         *
 * H              12     -0.28909              0.39704             -0.88380         *
 * H              13     -0.43755              0.56549             -0.65942         *
 * H              14     -0.56677             -0.50812              0.18039         *
 * H              15     -0.33989              0.52669              0.16611         *
 * H              16     -0.06593              0.04869             -0.06917         *
 * H              17     -0.08346             -0.04187             -0.06393         *
 * H              18     -0.06056              0.01790             -0.16461         *
 * H              19      0.01849              0.03510             -0.02341         *
 * H              20      0.01536             -0.05577             -0.03652         *
 * C               1     -0.58538              0.04256              0.26189         *
 * C               2      0.02024             -0.03161              0.00880         *
 * C               3     -0.18593              0.30614             -0.87713         *
 * C               4     -0.10410             -0.16209              0.13435         *
 * C               5     -0.05526              0.46114             -0.20228         *
 * C               6      0.26157             -0.05945              0.06884         *
 * C               7     -0.12264              0.01452              0.16444         *
 * N               1      2.32831             -0.46850              0.05643         *
 * O               1      1.18720             -0.69284              0.73767         *
 * O               2      0.07616             -0.14802              1.40878         *
 * O               3     -0.82054              0.10895              0.83460         *
 * Si              1      0.25749             -0.06157             -0.24882         *
 *                                                                                  *
 ************************************************************************************
 EXP precond LBFGS => estimated nearest neighbor distance :  1.626       A
 EXP precond LBFGS => estimated cutoff distance :  3.252       A
 doing test perturbation to get energy scale for EXP preconditioner
 
                           -------------------------------
                                     Cell Contents
                           -------------------------------
 
            xxxxxxxxxxxxxxxxxxxxxxxxxxxxxxxxxxxxxxxxxxxxxxxxxxxxxxxxxxxxxxxxx
            x  Element         Atom        Fractional coordinates of atoms  x
            x                 Number           u          v          w      x
            x---------------------------------------------------------------x
            x  H                 1         0.511198   0.451724   0.553651   x
            x  H                 2         0.538061   0.537590   0.554514   x
            x  H                 3         0.377496   0.468022   0.592059   x
            x  H                 4         0.402108   0.553274   0.592642   x
            x  H                 5         0.381149   0.533333   0.489095   x
            x  H                 6         0.501888   0.549919   0.503168   x
            x  H                 7         0.413088   0.416414   0.485542   x
            x  H                 8         0.523179   0.421504   0.506684   x
            x  H                 9         0.566243   0.410510   0.454061   x
            x  H                10         0.605385   0.487115   0.467393   x
            x  H                11         0.391681   0.427604   0.400585   x
            x  H                12         0.525549   0.534372   0.384328   x
            x  H                13         0.397569   0.596540   0.426227   x
            x  H                14         0.345878   0.477979   0.535615   x
            x  H                15         0.366470   0.556828   0.538380   x
            x  H                16         0.550679   0.445999   0.610109   x
            x  H                17         0.575179   0.530968   0.610512   x
            x  H                18         0.533517   0.491479   0.661251   x
            x  H                19         0.417312   0.461475   0.648668   x
            x  H                20         0.441192   0.547056   0.648952   x
            x  C                 1         0.479899   0.500532   0.557947   x
            x  C                 2         0.436405   0.504932   0.589178   x
            x  C                 3         0.441092   0.513855   0.503235   x
            x  C                 4         0.476950   0.448280   0.490560   x
            x  C                 5         0.538719   0.458359   0.461893   x
            x  C                 6         0.515728   0.494357   0.613111   x
            x  C                 7         0.474570   0.498853   0.644645   x
            x  N                 1         0.398393   0.513107   0.534224   x
            x  O                 1         0.548624   0.513745   0.401867   x
            x  O                 2         0.428626   0.569537   0.440655   x
            x  O                 3         0.381233   0.456123   0.416939   x
            x  Si                1         0.473457   0.499633   0.429352   x
            xxxxxxxxxxxxxxxxxxxxxxxxxxxxxxxxxxxxxxxxxxxxxxxxxxxxxxxxxxxxxxxxx
 
 
------------------------------------------------------------------------ <-- SCF
SCF loop      Energy                           Energy gain       Timer   <-- SCF
                                               per atom          (sec)   <-- SCF
------------------------------------------------------------------------ <-- SCF
Initial  -3.19267586E+003                                         78.04  <-- SCF
      1  -3.19039052E+003                   -7.14169315E-002      78.86  <-- SCF
      2  -3.19041452E+003                    7.50069127E-004      80.06  <-- SCF
      3  -3.19038711E+003                   -8.56562409E-004      81.11  <-- SCF
      4  -3.19040452E+003                    5.44046800E-004      82.18  <-- SCF
      5  -3.19040478E+003                    8.01004388E-006      83.01  <-- SCF
      6  -3.19040504E+003                    8.29070063E-006      83.79  <-- SCF
      7  -3.19040512E+003                    2.50315970E-006      84.58  <-- SCF
      8  -3.19040518E+003                    1.61396823E-006      85.36  <-- SCF
      9  -3.19040523E+003                    1.59728308E-006      86.15  <-- SCF
     10  -3.19040525E+003                    8.08039945E-007      86.94  <-- SCF
     11  -3.19040529E+003                    1.25242273E-006      87.72  <-- SCF
     12  -3.19040530E+003                    3.02093299E-007      88.51  <-- SCF
------------------------------------------------------------------------ <-- SCF
 
Final energy =  -3190.405302089     eV
(energy not corrected for finite basis set)
 
(SEDC) Total Energy Correction : -0.766939E+00 eV

Dispersion corrected final energy* =  -3191.172241405     eV
 
 ************************************** Forces **************************************
 *                                                                                  *
 *                           Cartesian components (eV/A)                            *
 * -------------------------------------------------------------------------------- *
 *                         x                    y                    z              *
 *                                                                                  *
 * H               1     -0.12011              0.08370             -0.14111         *
 * H               2     -0.17206              0.02427             -0.13674         *
 * H               3     -0.03342             -0.03443             -0.00827         *
 * H               4     -0.03619              0.13359             -0.02787         *
 * H               5      0.20990              0.02413             -0.04327         *
 * H               6     -0.14942             -0.05608              0.14266         *
 * H               7     -0.05959              0.06901              0.03235         *
 * H               8      0.00558              0.06446              0.08793         *
 * H               9     -0.12137              0.03993              0.05989         *
 * H              10      0.05911              0.01086             -0.03497         *
 * H              11      0.12649             -0.66106             -0.77302         *
 * H              12     -0.29831              0.41311             -0.94038         *
 * H              13     -0.47440              0.62452             -0.70057         *
 * H              14     -0.57542             -0.58394              0.19861         *
 * H              15     -0.39863              0.66435              0.19131         *
 * H              16     -0.02169             -0.05463             -0.07155         *
 * H              17     -0.01590              0.03004             -0.06961         *
 * H              18     -0.02581              0.00415             -0.13418         *
 * H              19     -0.02919             -0.03096             -0.02134         *
 * H              20     -0.03485              0.05249             -0.02711         *
 * C               1     -0.66175              0.05434              0.27339         *
 * C               2      0.05127             -0.06846             -0.00941         *
 * C               3     -0.24388              0.33557             -0.86534         *
 * C               4     -0.10173             -0.21124              0.11316         *
 * C               5     -0.11389              0.46748             -0.20058         *
 * C               6      0.19808             -0.05224              0.08083         *
 * C               7     -0.08827             -0.02101              0.14336         *
 * N               1      2.37950             -0.51736              0.02750         *
 * O               1      1.24530             -0.70215              0.75705         *
 * O               2      0.05729             -0.03265              1.50021         *
 * O               3     -0.87359              0.07875              0.84253         *
 * Si              1      0.31693             -0.14853             -0.24543         *
 *                                                                                  *
 ************************************************************************************
 EXP precond LBFGS => estimated parameter mu :  2.350       eV/A**2
 LBFGS: finished iteration     0 with enthalpy= -3.19117777E+003 eV
  
 +-----------+-----------------+-----------------+------------+-----+ <-- LBFGS
 | Parameter |      value      |    tolerance    |    units   | OK? | <-- LBFGS
 +-----------+-----------------+-----------------+------------+-----+ <-- LBFGS
 |  dE/ion   |   0.000000E+000 |   2.000000E-005 |         eV | No  | <-- LBFGS
 |  |F|max   |   2.435254E+000 |   5.000000E-002 |       eV/A | No  | <-- LBFGS
 |  |dR|max  |   7.995143E-015 |   2.000000E-003 |          A | No  | <-- LBFGS
 +-----------+-----------------+-----------------+------------+-----+ <-- LBFGS
  

================================================================================
 Starting LBFGS iteration          1 ...
================================================================================
  
 +------------+-------------+-------------+-----------------+ <-- min LBFGS
 |    Step    |   lambda    |   F.delta'  |    enthalpy     | <-- min LBFGS
 +------------+-------------+-------------+-----------------+ <-- min LBFGS
 |  previous  |    0.000000 |    1.763934 |    -3191.177775 | <-- min LBFGS
 +------------+-------------+-------------+-----------------+ <-- min LBFGS
  

--------------------------------------------------------------------------------
 LBFGS: starting iteration         1 with trial guess (lambda=  1.000000)
--------------------------------------------------------------------------------
 
                           -------------------------------
                                     Cell Contents
                           -------------------------------
 
            xxxxxxxxxxxxxxxxxxxxxxxxxxxxxxxxxxxxxxxxxxxxxxxxxxxxxxxxxxxxxxxxx
            x  Element         Atom        Fractional coordinates of atoms  x
            x                 Number           u          v          w      x
            x---------------------------------------------------------------x
            x  H                 1         0.508654   0.452331   0.552967   x
            x  H                 2         0.535153   0.537732   0.553811   x
            x  H                 3         0.375921   0.467945   0.591469   x
            x  H                 4         0.400451   0.553559   0.592028   x
            x  H                 5         0.382262   0.534009   0.488421   x
            x  H                 6         0.500807   0.550305   0.502612   x
            x  H                 7         0.411775   0.417165   0.485227   x
            x  H                 8         0.521855   0.422451   0.506362   x
            x  H                 9         0.563795   0.412046   0.453803   x
            x  H                10         0.603790   0.488246   0.466936   x
            x  H                11         0.386176   0.419241   0.399789   x
            x  H                12         0.531562   0.531987   0.382910   x
            x  H                13         0.392545   0.599652   0.427270   x
            x  H                14         0.345733   0.476172   0.535440   x
            x  H                15         0.367324   0.558249   0.538177   x
            x  H                16         0.548576   0.445893   0.609316   x
            x  H                17         0.573039   0.530844   0.609727   x
            x  H                18         0.530806   0.491427   0.660287   x
            x  H                19         0.414941   0.461384   0.647935   x
            x  H                20         0.438810   0.546968   0.648199   x
            x  C                 1         0.476918   0.500732   0.557593   x
            x  C                 2         0.434733   0.504911   0.588602   x
            x  C                 3         0.440809   0.514823   0.501956   x
            x  C                 4         0.475521   0.448795   0.490210   x
            x  C                 5         0.536953   0.460219   0.461393   x
            x  C                 6         0.514378   0.494159   0.612458   x
            x  C                 7         0.471888   0.498786   0.644015   x
            x  N                 1         0.404549   0.512331   0.533855   x
            x  O                 1         0.559162   0.508809   0.402388   x
            x  O                 2         0.426130   0.570325   0.443721   x
            x  O                 3         0.372984   0.450548   0.418034   x
            x  Si                1         0.474247   0.497406   0.429605   x
            xxxxxxxxxxxxxxxxxxxxxxxxxxxxxxxxxxxxxxxxxxxxxxxxxxxxxxxxxxxxxxxxx
 
 
------------------------------------------------------------------------ <-- SCF
SCF loop      Energy                           Energy gain       Timer   <-- SCF
                                               per atom          (sec)   <-- SCF
------------------------------------------------------------------------ <-- SCF
Initial  -3.20366356E+003                                         89.91  <-- SCF
      1  -3.18869274E+003                   -4.67838236E-001      90.75  <-- SCF
      2  -3.19014143E+003                    4.52716965E-002      92.03  <-- SCF
      3  -3.18965900E+003                   -1.50759812E-002      93.22  <-- SCF
      4  -3.18972509E+003                    2.06526923E-003      94.33  <-- SCF
      5  -3.18976483E+003                    1.24191575E-003      95.36  <-- SCF
      6  -3.18976716E+003                    7.29645377E-005      96.49  <-- SCF
      7  -3.18976795E+003                    2.47070780E-005      97.37  <-- SCF
      8  -3.18976836E+003                    1.26208387E-005      98.16  <-- SCF
      9  -3.18976874E+003                    1.19706975E-005      99.02  <-- SCF
     10  -3.18976890E+003                    4.85282759E-006      99.81  <-- SCF
     11  -3.18976904E+003                    4.43894162E-006     100.60  <-- SCF
     12  -3.18976916E+003                    3.75326843E-006     101.39  <-- SCF
     13  -3.18976924E+003                    2.45441397E-006     102.17  <-- SCF
     14  -3.18976936E+003                    3.80163587E-006     102.97  <-- SCF
     15  -3.18976945E+003                    2.92656895E-006     103.76  <-- SCF
     16  -3.18976958E+003                    4.13351180E-006     104.55  <-- SCF
     17  -3.18976966E+003                    2.24762487E-006     105.35  <-- SCF
     18  -3.18976978E+003                    3.82638337E-006     106.15  <-- SCF
     19  -3.18976982E+003                    1.25760718E-006     106.95  <-- SCF
     20  -3.18976990E+003                    2.69019931E-006     107.75  <-- SCF
     21  -3.18976993E+003                    8.19128048E-007     108.56  <-- SCF
     22  -3.18977001E+003                    2.42202379E-006     109.36  <-- SCF
     23  -3.18977003E+003                    7.05684086E-007     110.17  <-- SCF
     24  -3.18977007E+003                    1.24605504E-006     110.98  <-- SCF
------------------------------------------------------------------------ <-- SCF
 
Final energy =  -3189.770070861     eV
(energy not corrected for finite basis set)
 
(SEDC) Total Energy Correction : -0.767405E+00 eV

Dispersion corrected final energy* =  -3190.537475385     eV
 
 ************************************** Forces **************************************
 *                                                                                  *
 *                           Cartesian components (eV/A)                            *
 * -------------------------------------------------------------------------------- *
 *                         x                    y                    z              *
 *                                                                                  *
 * H               1      0.15838             -0.06179              0.10306         *
 * H               2      0.07822             -0.07017              0.16164         *
 * H               3     -0.05942             -0.01888              0.01069         *
 * H               4     -0.00262             -0.01633              0.00852         *
 * H               5     -0.66528              0.36633             -0.33565         *
 * H               6      0.32829              0.23939             -0.12943         *
 * H               7     -0.11725              0.01175             -0.01240         *
 * H               8      0.09076              0.05558              0.08808         *
 * H               9      0.03064             -0.01081             -0.00953         *
 * H              10      0.11499              0.17442             -0.02803         *
 * H              11     -0.38174              1.93814              2.41238         *
 * H              12      1.18864             -1.52509              2.71417         *
 * H              13      1.25731             -1.74852              2.13378         *
 * H              14      1.28242              1.16848             -0.10331         *
 * H              15      0.74079             -1.47132             -0.26460         *
 * H              16      0.07761             -0.17275             -0.07109         *
 * H              17      0.15581              0.12161             -0.04744         *
 * H              18      0.14552             -0.03470              0.17170         *
 * H              19     -0.06890             -0.08968              0.00011         *
 * H              20     -0.04142              0.12370              0.00676         *
 * C               1      1.18250             -0.13438              0.01997         *
 * C               2     -0.24057              0.10329              0.17079         *
 * C               3      0.64425             -0.62881              0.84987         *
 * C               4      0.17038              0.15669             -0.40525         *
 * C               5      0.28408             -0.80758              0.79097         *
 * C               6     -0.24980              0.03114              0.14363         *
 * C               7      0.03105             -0.02697             -0.27519         *
 * N               1     -3.63003              0.54961             -0.21290         *
 * O               1     -2.03040              1.22704             -1.65654         *
 * O               2     -0.72485              0.26257             -2.88149         *
 * O               3      2.00435             -0.65128             -1.67461         *
 * Si              1     -1.75370              0.93934             -1.67864         *
 *                                                                                  *
 ************************************************************************************
  
 +------------+-------------+-------------+-----------------+ <-- min LBFGS
 |    Step    |   lambda    |   F.delta'  |    enthalpy     | <-- min LBFGS
 +------------+-------------+-------------+-----------------+ <-- min LBFGS
 |  previous  |    0.000000 |    1.763934 |    -3191.177775 | <-- min LBFGS
 | trial step |    1.000000 |   -3.415854 |    -3190.537475 | <-- min LBFGS
 +------------+-------------+-------------+-----------------+ <-- min LBFGS
  

--------------------------------------------------------------------------------
 LBFGS: improving iteration         1 with line minimization (lambda=  0.340542)
--------------------------------------------------------------------------------
 
                           -------------------------------
                                     Cell Contents
                           -------------------------------
 
            xxxxxxxxxxxxxxxxxxxxxxxxxxxxxxxxxxxxxxxxxxxxxxxxxxxxxxxxxxxxxxxxx
            x  Element         Atom        Fractional coordinates of atoms  x
            x                 Number           u          v          w      x
            x---------------------------------------------------------------x
            x  H                 1         0.509597   0.451582   0.553201   x
            x  H                 2         0.536371   0.537502   0.554058   x
            x  H                 3         0.376171   0.467683   0.591657   x
            x  H                 4         0.400749   0.553278   0.592232   x
            x  H                 5         0.380738   0.533415   0.488631   x
            x  H                 6         0.500775   0.549948   0.502747   x
            x  H                 7         0.411846   0.416253   0.485201   x
            x  H                 8         0.522008   0.421419   0.506343   x
            x  H                 9         0.564755   0.410606   0.453735   x
            x  H                10         0.604263   0.487232   0.467001   x
            x  H                11         0.389013   0.424359   0.400078   x
            x  H                12         0.526880   0.533414   0.383611   x
            x  H                13         0.395064   0.597628   0.426344   x
            x  H                14         0.345057   0.477074   0.535332   x
            x  H                15         0.365977   0.557228   0.538089   x
            x  H                16         0.549282   0.445602   0.609646   x
            x  H                17         0.573812   0.530771   0.610052   x
            x  H                18         0.531888   0.491204   0.660759   x
            x  H                19         0.415710   0.461117   0.648247   x
            x  H                20         0.439592   0.546915   0.648525   x
            x  C                 1         0.478117   0.500365   0.557611   x
            x  C                 2         0.435045   0.504702   0.588780   x
            x  C                 3         0.440206   0.513985   0.502568   x
            x  C                 4         0.475695   0.448100   0.490207   x
            x  C                 5         0.537419   0.458658   0.461485   x
            x  C                 6         0.514539   0.494039   0.612698   x
            x  C                 7         0.472887   0.498591   0.644257   x
            x  N                 1         0.399695   0.512640   0.533875   x
            x  O                 1         0.551529   0.511864   0.401808   x
            x  O                 2         0.426983   0.569757   0.441461   x
            x  O                 3         0.377633   0.453885   0.417074   x
            x  Si                1         0.472955   0.498638   0.429200   x
            xxxxxxxxxxxxxxxxxxxxxxxxxxxxxxxxxxxxxxxxxxxxxxxxxxxxxxxxxxxxxxxxx
 
 
------------------------------------------------------------------------ <-- SCF
SCF loop      Energy                           Energy gain       Timer   <-- SCF
                                               per atom          (sec)   <-- SCF
------------------------------------------------------------------------ <-- SCF
Initial  -3.20386543E+003                                        112.46  <-- SCF
      1  -3.19035412E+003                   -4.22228423E-001     113.31  <-- SCF
      2  -3.19072088E+003                    1.14613851E-002     114.45  <-- SCF
      3  -3.19047296E+003                   -7.74744942E-003     115.47  <-- SCF
      4  -3.19053878E+003                    2.05691496E-003     116.62  <-- SCF
      5  -3.19056285E+003                    7.52100124E-004     117.68  <-- SCF
      6  -3.19056338E+003                    1.65109532E-005     118.57  <-- SCF
      7  -3.19056358E+003                    6.41096155E-006     119.35  <-- SCF
      8  -3.19056370E+003                    3.50686434E-006     120.13  <-- SCF
      9  -3.19056377E+003                    2.15888176E-006     120.92  <-- SCF
     10  -3.19056394E+003                    5.59022620E-006     121.70  <-- SCF
     11  -3.19056409E+003                    4.69797098E-006     122.49  <-- SCF
     12  -3.19056440E+003                    9.53526326E-006     123.28  <-- SCF
     13  -3.19056459E+003                    5.98548898E-006     124.07  <-- SCF
     14  -3.19056483E+003                    7.58371719E-006     124.86  <-- SCF
     15  -3.19056492E+003                    2.72185322E-006     125.65  <-- SCF
     16  -3.19056504E+003                    3.68024214E-006     126.46  <-- SCF
     17  -3.19056510E+003                    1.94393640E-006     127.29  <-- SCF
     18  -3.19056519E+003                    2.67995764E-006     128.09  <-- SCF
     19  -3.19056522E+003                    1.15654980E-006     128.89  <-- SCF
     20  -3.19056528E+003                    1.87352897E-006     129.69  <-- SCF
     21  -3.19056531E+003                    7.81865098E-007     130.50  <-- SCF
     22  -3.19056535E+003                    1.25293360E-006     131.30  <-- SCF
     23  -3.19056537E+003                    5.24785125E-007     132.10  <-- SCF
------------------------------------------------------------------------ <-- SCF
 
Final energy =  -3190.565365512     eV
(energy not corrected for finite basis set)
 
(SEDC) Total Energy Correction : -0.767871E+00 eV

Dispersion corrected final energy* =  -3191.333236977     eV
 
 ************************************** Forces **************************************
 *                                                                                  *
 *                           Cartesian components (eV/A)                            *
 * -------------------------------------------------------------------------------- *
 *                         x                    y                    z              *
 *                                                                                  *
 * H               1     -0.04822              0.11060             -0.05927         *
 * H               2     -0.13590             -0.06204             -0.03797         *
 * H               3     -0.01577              0.00911             -0.00205         *
 * H               4     -0.00848              0.01079             -0.01443         *
 * H               5     -0.06203              0.11632             -0.11749         *
 * H               6     -0.01889             -0.00615              0.05099         *
 * H               7     -0.04821              0.06897              0.03068         *
 * H               8      0.02202              0.08867              0.07711         *
 * H               9     -0.08770              0.08156              0.04115         *
 * H              10      0.00675              0.01782             -0.03878         *
 * H              11     -0.06353              0.47848              0.60494         *
 * H              12      0.31046             -0.44306              0.71067         *
 * H              13      0.28525             -0.45093              0.49849         *
 * H              14      0.15344              0.17690              0.07754         *
 * H              15      0.06870             -0.27452             -0.00317         *
 * H              16     -0.01792             -0.02558             -0.06930         *
 * H              17     -0.00419              0.01312             -0.05617         *
 * H              18      0.01424              0.00159             -0.05455         *
 * H              19     -0.01152             -0.00665             -0.01359         *
 * H              20     -0.00303              0.00508             -0.02095         *
 * C               1     -0.05454              0.00094              0.10736         *
 * C               2     -0.06600              0.01449              0.06089         *
 * C               3      0.07394              0.00065             -0.30345         *
 * C               4     -0.01003             -0.04800             -0.04766         *
 * C               5      0.03769              0.04733              0.09028         *
 * C               6      0.08712             -0.02768              0.09515         *
 * C               7     -0.06762              0.00085              0.01611         *
 * N               1      0.27180             -0.13055              0.07018         *
 * O               1     -0.05612              0.13213             -0.36632         *
 * O               2     -0.28276              0.05199             -0.31647         *
 * O               3      0.31962             -0.25421             -0.23006         *
 * Si              1     -0.58857              0.30196             -0.77984         *
 *                                                                                  *
 ************************************************************************************
  
 +------------+-------------+-------------+-----------------+ <-- min LBFGS
 |    Step    |   lambda    |   F.delta'  |    enthalpy     | <-- min LBFGS
 +------------+-------------+-------------+-----------------+ <-- min LBFGS
 |  previous  |    0.000000 |    1.763934 |    -3191.177775 | <-- min LBFGS
 | trial step |    1.000000 |   -3.415854 |    -3190.537475 | <-- min LBFGS
 |  line step |    0.340542 |   -0.265050 |    -3191.333237 | <-- min LBFGS
 +------------+-------------+-------------+-----------------+ <-- min LBFGS
  
 LBFGS: finished iteration     1 with enthalpy= -3.19133324E+003 eV
  
 +-----------+-----------------+-----------------+------------+-----+ <-- LBFGS
 | Parameter |      value      |    tolerance    |    units   | OK? | <-- LBFGS
 +-----------+-----------------+-----------------+------------+-----+ <-- LBFGS
 |  dE/ion   |   4.858195E-003 |   2.000000E-005 |         eV | No  | <-- LBFGS
 |  |F|max   |   1.022619E+000 |   5.000000E-002 |       eV/A | No  | <-- LBFGS
 |  |dR|max  |   6.357651E-002 |   2.000000E-003 |          A | No  | <-- LBFGS
 +-----------+-----------------+-----------------+------------+-----+ <-- LBFGS
  

================================================================================
 Starting LBFGS iteration          2 ...
================================================================================
  
 +------------+-------------+-------------+-----------------+ <-- min LBFGS
 |    Step    |   lambda    |   F.delta'  |    enthalpy     | <-- min LBFGS
 +------------+-------------+-------------+-----------------+ <-- min LBFGS
 |  previous  |    0.000000 |    0.759600 |    -3191.333237 | <-- min LBFGS
 +------------+-------------+-------------+-----------------+ <-- min LBFGS
  

--------------------------------------------------------------------------------
 LBFGS: starting iteration         2 with trial guess (lambda=  1.000000)
--------------------------------------------------------------------------------
 
                           -------------------------------
                                     Cell Contents
                           -------------------------------
 
            xxxxxxxxxxxxxxxxxxxxxxxxxxxxxxxxxxxxxxxxxxxxxxxxxxxxxxxxxxxxxxxxx
            x  Element         Atom        Fractional coordinates of atoms  x
            x                 Number           u          v          w      x
            x---------------------------------------------------------------x
            x  H                 1         0.508853   0.452376   0.552791   x
            x  H                 2         0.535109   0.537485   0.553656   x
            x  H                 3         0.375737   0.467865   0.591329   x
            x  H                 4         0.400319   0.553443   0.591879   x
            x  H                 5         0.381496   0.534196   0.488004   x
            x  H                 6         0.500948   0.550371   0.502352   x
            x  H                 7         0.411399   0.417620   0.485033   x
            x  H                 8         0.521820   0.422855   0.506226   x
            x  H                 9         0.563164   0.412448   0.453730   x
            x  H                10         0.603406   0.488576   0.466787   x
            x  H                11         0.388697   0.424820   0.402112   x
            x  H                12         0.532134   0.529468   0.385395   x
            x  H                13         0.394505   0.594939   0.428016   x
            x  H                14         0.346861   0.477022   0.535243   x
            x  H                15         0.367812   0.556952   0.537889   x
            x  H                16         0.548563   0.445625   0.609084   x
            x  H                17         0.573116   0.530790   0.609510   x
            x  H                18         0.530884   0.491270   0.660075   x
            x  H                19         0.414747   0.461184   0.647710   x
            x  H                20         0.438663   0.546912   0.647970   x
            x  C                 1         0.477338   0.500607   0.557429   x
            x  C                 2         0.434495   0.504842   0.588489   x
            x  C                 3         0.440929   0.514708   0.501704   x
            x  C                 4         0.475371   0.449110   0.489952   x
            x  C                 5         0.536552   0.460334   0.461364   x
            x  C                 6         0.514305   0.494012   0.612312   x
            x  C                 7         0.471751   0.498641   0.643771   x
            x  N                 1         0.403506   0.512271   0.533661   x
            x  O                 1         0.556493   0.508827   0.402874   x
            x  O                 2         0.425147   0.568023   0.442790   x
            x  O                 3         0.377267   0.453225   0.418589   x
            x  Si                1         0.470863   0.498634   0.428789   x
            xxxxxxxxxxxxxxxxxxxxxxxxxxxxxxxxxxxxxxxxxxxxxxxxxxxxxxxxxxxxxxxxx
 
 
------------------------------------------------------------------------ <-- SCF
SCF loop      Energy                           Energy gain       Timer   <-- SCF
                                               per atom          (sec)   <-- SCF
------------------------------------------------------------------------ <-- SCF
Initial  -3.20524945E+003                                        133.52  <-- SCF
      1  -3.19031419E+003                   -4.66726817E-001     134.38  <-- SCF
      2  -3.19056395E+003                    7.80478470E-003     135.53  <-- SCF
      3  -3.19044149E+003                   -3.82670798E-003     136.56  <-- SCF
      4  -3.19052524E+003                    2.61724420E-003     137.59  <-- SCF
      5  -3.19052730E+003                    6.40879424E-005     138.74  <-- SCF
      6  -3.19052737E+003                    2.36227750E-006     139.65  <-- SCF
      7  -3.19052700E+003                   -1.15037798E-005     140.49  <-- SCF
      8  -3.19052648E+003                   -1.62853470E-005     141.39  <-- SCF
      9  -3.19052630E+003                   -5.58975917E-006     142.22  <-- SCF
     10  -3.19052636E+003                    1.73245724E-006     143.02  <-- SCF
     11  -3.19052658E+003                    6.78208743E-006     143.81  <-- SCF
     12  -3.19052676E+003                    5.81039724E-006     144.60  <-- SCF
     13  -3.19052706E+003                    9.46946748E-006     145.39  <-- SCF
     14  -3.19052724E+003                    5.59876225E-006     146.18  <-- SCF
     15  -3.19052742E+003                    5.42081997E-006     146.97  <-- SCF
     16  -3.19052757E+003                    4.83980740E-006     147.76  <-- SCF
     17  -3.19052771E+003                    4.38124231E-006     148.56  <-- SCF
     18  -3.19052783E+003                    3.76369963E-006     149.35  <-- SCF
     19  -3.19052796E+003                    3.97097994E-006     150.15  <-- SCF
     20  -3.19052803E+003                    2.13403913E-006     150.94  <-- SCF
     21  -3.19052808E+003                    1.66033548E-006     151.75  <-- SCF
     22  -3.19052811E+003                    7.76226185E-007     152.56  <-- SCF
     23  -3.19052815E+003                    1.39629641E-006     153.36  <-- SCF
     24  -3.19052818E+003                    8.37358639E-007     154.17  <-- SCF
     25  -3.19052819E+003                    4.33206900E-007     154.98  <-- SCF
[...]
 * H              17     -0.00016             -0.00018              0.00096         *
 * H              18      0.00322             -0.00081              0.00002         *
 * H              19     -0.00037              0.00140              0.00011         *
 * H              20      0.00051             -0.00098              0.00034         *
 * C               1     -0.00022             -0.00048              0.00036         *
 * C               2      0.00046              0.00013             -0.00083         *
 * C               3     -0.00001             -0.00148             -0.00143         *
 * C               4     -0.00149              0.00163              0.00194         *
 * C               5      0.00077             -0.00062             -0.00205         *
 * C               6      0.00118             -0.00030             -0.00167         *
 * C               7     -0.00337              0.00174             -0.00231         *
 * N               1     -0.00048             -0.00012              0.00001         *
 * O               1      0.00174             -0.00025              0.00871         *
 * O               2      0.00288             -0.00998             -0.00108         *
 * O               3      0.01036              0.00757              0.00280         *
 * Si              1     -0.00976              0.00068             -0.00354         *
 *                                                                                  *
 ************************************************************************************
 
 Pseudo atomic calculation performed for H 1s1
 
 Converged in 13 iterations to a total energy of -12.4790 eV
 
 Pseudo atomic calculation performed for C 2s2 2p2
 
 Converged in 17 iterations to a total energy of -148.5208 eV
 
 Pseudo atomic calculation performed for N 2s2 2p3
 
 Converged in 21 iterations to a total energy of -268.1820 eV
 
 Pseudo atomic calculation performed for O 2s2 2p4
 
 Converged in 23 iterations to a total energy of -432.6536 eV
 
 Pseudo atomic calculation performed for Si 3s2 3p2
 
 Converged in 11 iterations to a total energy of -165.0683 eV
Charge spilling parameter for spin component 1 = 1.55%
 
            Orbital Populations       
     Ion    Atom   Orbital             Charge
  -------------------------------------------
      H     1      S                    0.699
      H     2      S                    0.692
      H     3      S                    0.727
      H     4      S                    0.733
      H     5      S                    0.679
      H     6      S                    0.694
      H     7      S                    0.725
      H     8      S                    0.739
      H     9      S                    0.699
      H    10      S                    0.719
      H    11      S                    0.459
      H    12      S                    0.460
      H    13      S                    0.466
      H    14      S                    0.510
      H    15      S                    0.503
      H    16      S                    0.729
      H    17      S                    0.731
      H    18      S                    0.699
      H    19      S                    0.726
      H    20      S                    0.727
      C     1      S                    1.295
      C     1      Px                   0.983
      C     1      Py                   1.242
      C     1      Pz                   0.872
      C     2      S                    1.298
      C     2      Px                   1.094
      C     2      Py                   1.203
      C     2      Pz                   0.928
      C     3      S                    1.301
      C     3      Px                   1.184
      C     3      Py                   1.110
      C     3      Pz                   0.807
      C     4      S                    1.294
      C     4      Px                   1.155
      C     4      Py                   1.001
      C     4      Pz                   1.067
      C     5      S                    1.408
      C     5      Px                   1.190
      C     5      Py                   1.260
      C     5      Pz                   1.107
      C     6      S                    1.304
      C     6      Px                   1.051
      C     6      Py                   1.198
      C     6      Pz                   0.955
      C     7      S                    1.400
      C     7      Px                   1.186
      C     7      Py                   1.200
      C     7      Pz                   1.009
      N     1      S                    1.590
      N     1      Px                   1.355
      N     1      Py                   1.432
      N     1      Pz                   1.265
      O     1      S                    1.854
      O     1      Px                   1.827
      O     1      Py                   1.867
      O     1      Pz                   1.545
      O     2      S                    1.857
      O     2      Px                   1.764
      O     2      Py                   1.692
      O     2      Pz                   1.793
      O     3      S                    1.857
      O     3      Px                   1.824
      O     3      Py                   1.670
      O     3      Pz                   1.748
     Si     1      S                    0.724
     Si     1      Px                   0.327
     Si     1      Py                   0.358
     Si     1      Pz                   0.432
  -------------------------------------------
                           Total:      74.000
  -------------------------------------------
 
     Atomic Populations (Mulliken)
     -----------------------------
Species          Ion     s       p       d       f      Total   Charge (e)
==========================================================================
  H               1     0.699   0.000   0.000   0.000   0.699     0.301
  H               2     0.692   0.000   0.000   0.000   0.692     0.308
  H               3     0.727   0.000   0.000   0.000   0.727     0.273
  H               4     0.733   0.000   0.000   0.000   0.733     0.267
  H               5     0.679   0.000   0.000   0.000   0.679     0.321
  H               6     0.694   0.000   0.000   0.000   0.694     0.306
  H               7     0.725   0.000   0.000   0.000   0.725     0.275
  H               8     0.739   0.000   0.000   0.000   0.739     0.261
  H               9     0.699   0.000   0.000   0.000   0.699     0.301
  H              10     0.719   0.000   0.000   0.000   0.719     0.281
  H              11     0.459   0.000   0.000   0.000   0.459     0.541
  H              12     0.460   0.000   0.000   0.000   0.460     0.540
  H              13     0.466   0.000   0.000   0.000   0.466     0.534
  H              14     0.510   0.000   0.000   0.000   0.510     0.490
  H              15     0.503   0.000   0.000   0.000   0.503     0.497
  H              16     0.729   0.000   0.000   0.000   0.729     0.271
  H              17     0.731   0.000   0.000   0.000   0.731     0.269
  H              18     0.699   0.000   0.000   0.000   0.699     0.301
  H              19     0.726   0.000   0.000   0.000   0.726     0.274
  H              20     0.727   0.000   0.000   0.000   0.727     0.273
  C               1     1.295   3.097   0.000   0.000   4.392    -0.392
  C               2     1.298   3.225   0.000   0.000   4.523    -0.523
  C               3     1.301   3.102   0.000   0.000   4.403    -0.403
  C               4     1.294   3.223   0.000   0.000   4.516    -0.516
  C               5     1.408   3.557   0.000   0.000   4.965    -0.965
  C               6     1.304   3.204   0.000   0.000   4.508    -0.508
  C               7     1.400   3.395   0.000   0.000   4.794    -0.794
  N               1     1.590   4.052   0.000   0.000   5.642    -0.642
  O               1     1.854   5.238   0.000   0.000   7.092    -1.092
  O               2     1.857   5.248   0.000   0.000   7.105    -1.105
  O               3     1.857   5.242   0.000   0.000   7.099    -1.099
  Si              1     0.724   1.117   0.000   0.000   1.841     2.159
==========================================================================
 
                 Bond                   Population      Length (A)
======================================================================
              H 12 -- O 1                    0.53        0.96843
              H 11 -- O 3                    0.53        0.96936
              H 13 -- O 2                    0.53        0.96981
              H 15 -- N 1                    0.67        1.02821
              H 14 -- N 1                    0.67        1.03012
              H 5  -- C 3                    0.85        1.09669
              H 1  -- C 1                    0.87        1.09716
              H 18 -- C 7                    0.81        1.09814
              H 2  -- C 1                    0.86        1.09836
              H 6  -- C 3                    0.85        1.09915
              H 20 -- C 7                    0.81        1.10028
              H 19 -- C 7                    0.81        1.10049
              H 9  -- C 5                    0.82        1.10089
              H 8  -- C 4                    0.87        1.10165
              H 10 -- C 5                    0.81        1.10231
              H 3  -- C 2                    0.84        1.10292
              H 17 -- C 6                    0.84        1.10306
              H 16 -- C 6                    0.84        1.10308
              H 7  -- C 4                    0.84        1.10330
              H 4  -- C 2                    0.85        1.10436
               C 1 -- N 1                    0.51        1.51511
               C 3 -- N 1                    0.50        1.51685
               C 1 -- C 2                    0.71        1.51831
               C 3 -- C 4                    0.70        1.52211
               C 6 -- C 7                    0.65        1.52831
               C 2 -- C 6                    0.68        1.53489
               C 4 -- C 5                    0.65        1.53751
               O 1 -- Si 1                   0.52        1.63911
              H 14 -- H 15                  -0.11        1.64737
               O 3 -- Si 1                   0.49        1.65124
               O 2 -- Si 1                   0.48        1.65784
              H 9  -- H 10                  -0.09        1.75586
              H 16 -- H 17                  -0.12        1.76979
              H 7  -- H 8                   -0.13        1.77232
              H 18 -- H 20                  -0.10        1.77474
              H 18 -- H 19                  -0.10        1.77737
              H 5  -- H 6                   -0.11        1.77782
              H 19 -- H 20                  -0.10        1.78078
              H 3  -- H 4                   -0.12        1.78102
              H 1  -- H 2                   -0.11        1.78336
               C 5 -- Si 1                   0.60        1.87864
              H 15 -- C 1                   -0.13        2.08037
              H 14 -- C 3                   -0.12        2.08885
              H 14 -- C 1                   -0.12        2.08938
              H 15 -- C 3                   -0.13        2.09860
              H 2  -- N 1                   -0.11        2.09991
              H 1  -- N 1                   -0.11        2.10786
              H 6  -- N 1                   -0.11        2.10865
              H 5  -- N 1                   -0.11        2.12316
              H 1  -- H 8                   -0.04        2.15165
              H 7  -- C 3                   -0.13        2.15647
              H 9  -- C 4                   -0.12        2.15656
              H 17 -- C 2                   -0.14        2.15845
              H 8  -- C 3                   -0.14        2.15942
              H 16 -- C 2                   -0.14        2.15976
              H 4  -- C 1                   -0.14        2.16143
              H 8  -- C 5                   -0.14        2.16331
              H 4  -- C 6                   -0.12        2.16532
              H 17 -- C 7                   -0.13        2.16618
              H 3  -- C 1                   -0.13        2.16723
              H 3  -- C 6                   -0.12        2.16798
              H 10 -- C 4                   -0.12        2.16942
              H 16 -- C 7                   -0.13        2.17090
              H 2  -- C 2                   -0.12        2.17113
              H 18 -- C 6                   -0.12        2.17225
              H 5  -- C 4                   -0.11        2.17743
              H 1  -- C 2                   -0.12        2.17988
              H 20 -- C 6                   -0.12        2.18200
              H 7  -- C 5                   -0.12        2.18319
              H 6  -- C 4                   -0.12        2.18346
              H 19 -- C 6                   -0.12        2.18522
              H 13 -- Si 1                  -0.14        2.27689
              H 11 -- Si 1                  -0.12        2.27703
              H 5  -- O 2                    0.00        2.29752
              H 12 -- Si 1                  -0.14        2.30118
              H 5  -- H 15                  -0.04        2.30879
              H 2  -- H 6                   -0.02        2.33100
              H 1  -- H 14                  -0.04        2.37087
              H 8  -- H 9                   -0.05        2.42535
              H 9  -- Si 1                  -0.13        2.43331
              H 2  -- H 15                  -0.03        2.44716
              H 4  -- H 15                  -0.01        2.45479
              H 10 -- Si 1                  -0.11        2.45487
              H 5  -- H 7                   -0.04        2.47345
              H 6  -- H 15                  -0.01        2.48843
              H 17 -- H 18                  -0.03        2.49315
              H 5  -- H 14                  -0.01        2.49500
              H 2  -- H 17                  -0.01        2.49554
              H 7  -- H 14                  -0.00        2.49747
               C 1 -- C 6                   -0.15        2.50170
              H 3  -- H 16                  -0.03        2.50503
              H 4  -- H 17                  -0.03        2.50803
              H 8  -- H 10                  -0.03        2.50851
              H 6  -- H 10                  -0.01        2.50857
               C 4 -- N 1                   -0.13        2.50920
              H 16 -- H 18                  -0.03        2.51230
              H 2  -- H 4                   -0.03        2.51508
               C 2 -- N 1                   -0.13        2.52278
               C 3 -- C 5                   -0.15        2.52415
              H 1  -- H 3                   -0.03        2.52780
              H 16 -- H 19                  -0.03        2.53093
              H 17 -- H 20                  -0.03        2.53252
              H 7  -- H 9                   -0.02        2.53274
              H 1  -- H 16                  -0.01        2.54239
               C 2 -- C 7                   -0.15        2.54785
               C 1 -- C 3                   -0.13        2.55433
              H 6  -- H 8                   -0.03        2.57280
              H 4  -- H 20                  -0.01        2.58093
              H 3  -- H 14                  -0.00        2.61599
              H 3  -- H 19                  -0.01        2.62292
              H 14 -- C 4                   -0.05        2.62433
               O 2 -- O 3                   -0.08        2.64130
              H 15 -- C 2                   -0.04        2.64641
              H 6  -- C 1                   -0.05        2.67037
              H 2  -- C 3                   -0.04        2.68126
              H 8  -- N 1                   -0.02        2.68417
              H 17 -- C 1                   -0.04        2.70214
              H 16 -- C 1                   -0.04        2.72037
              H 6  -- C 5                   -0.04        2.73973
               O 1 -- O 3                   -0.08        2.74739
              H 10 -- C 3                   -0.04        2.75118
              H 2  -- C 6                   -0.04        2.75808
              H 4  -- N 1                   -0.03        2.76381
              H 14 -- C 2                   -0.02        2.77174
              H 4  -- C 7                   -0.04        2.77209
               C 5 -- O 1                   -0.10        2.77409
               O 1 -- O 2                   -0.07        2.78163
              H 1  -- C 6                   -0.03        2.78218
              H 3  -- N 1                   -0.02        2.78948
              H 3  -- C 7                   -0.03        2.78969
              H 1  -- C 3                   -0.02        2.79640
              H 7  -- N 1                   -0.02        2.80120
              H 8  -- C 1                   -0.03        2.80384
              H 20 -- C 2                   -0.04        2.81022
              H 8  -- H 14                  -0.00        2.81089
               C 5 -- O 2                   -0.10        2.82197
              H 19 -- C 2                   -0.03        2.83032
              H 1  -- C 4                   -0.02        2.85566
              H 5  -- C 5                   -0.02        2.85680
              H 13 -- O 3                   -0.01        2.87447
              H 11 -- O 1                   -0.01        2.88177
              H 10 -- O 1                   -0.01        2.88939
               C 4 -- Si 1                  -0.13        2.93242
               C 5 -- O 3                   -0.09        2.94552
              H 1  -- H 15                   0.03        2.95199
              H 2  -- H 14                   0.03        2.95369
              H 6  -- H 14                   0.03        2.95679
              H 9  -- O 1                   -0.01        2.96356
              H 3  -- H 15                  -0.00        2.97612
              H 5  -- H 13                  -0.00        2.99377
======================================================================
 
 
     Hirshfeld Analysis
     ------------------
Species   Ion     Hirshfeld Charge (e)
======================================
  H        1                 0.06
  H        2                 0.07
  H        3                 0.05
  H        4                 0.05
  H        5                 0.06
  H        6                 0.07
  H        7                 0.05
  H        8                 0.04
  H        9                 0.06
  H       10                 0.05
  H       11                 0.17
  H       12                 0.18
  H       13                 0.17
  H       14                 0.18
  H       15                 0.18
  H       16                 0.04
  H       17                 0.04
  H       18                 0.06
  H       19                 0.05
  H       20                 0.05
  C        1                 0.01
  C        2                -0.06
  C        3                 0.01
  C        4                -0.06
  C        5                -0.14
  C        6                -0.05
  C        7                -0.10
  N        1                 0.04
  O        1                -0.28
  O        2                -0.28
  O        3                -0.29
  Si       1                 0.47
======================================
 

Writing analysis data to Conf_0010.castep_bin

Writing model to Conf_0010.check
 
 A BibTeX formatted list of references used in this run has been written to 
 Conf_0010.bib
 
Initialisation time =     25.13 s
Calculation time    =    781.01 s
Finalisation time   =      1.15 s
Total time          =    807.28 s
Peak Memory Use     = 7912664 kB
 
Overall parallel efficiency rating: Satisfactory (67%)
 
Data was distributed by:-
G-vector (48-way); efficiency rating: Satisfactory (67%)
High Water Mark     = 1767436 kB
