 Job started on host drago31040141.mgmt.cc.csic.es
 at Sun Mar 31 00:50:16 2024

 +-------------------------------------------------+
 |                                                 |
 |      CCC   AA    SSS  TTTTT  EEEEE  PPPP        |
 |     C     A  A  S       T    E      P   P       |
 |     C     AAAA   SS     T    EEE    PPPP        |
 |     C     A  A     S    T    E      P           |
 |      CCC  A  A  SSS     T    EEEEE  P           |
 |                                                 |
 +-------------------------------------------------+
 |                                                 |
 | Materials Studio CASTEP version 2024            |
 | Ab Initio Total Energy Program                  |
 |                                                 |
 | Authors:                                        |
 | M. Segall, M. Probert, C. Pickard, P. Hasnip,   |
 | S. Clark, K. Refson, J. R. Yates,               |
 | A. Bartok-Partay, M. Payne                      |
 |                                                 |
 | Contributors:                                   |
 | P. Lindan, P. Haynes, J. White, V. Milman,      |
 | N. Govind, M. Gibson, P. Tulip, V. Cocula,      |
 | B. Montanari, D. Quigley, M. Glover,            |
 | L. Bernasconi, A. Perlov, M. Plummer,           |
 | E. McNellis, J. Meyer, J. Gale, D. Jochym       |
 | J. Aarons, B. Walker, R. Gillen, D. Jones       |
 | T. Green, I. J. Bush, C. J. Armstrong,          |
 | E. J. Higgins, E. L. Brown, M. S. McFly,        |
 | J. Wilkins, B-C. Shih, P. J. P. Byrne,          |
 | R. J. Maurer, J. C. Womack, J. Dziedzic,        |
 | L. LeBlanc, T. K. Stenczel, J. Kermode,         |
 | S. Sturniolo, B. Shi, B. Durham, M. Evans,      |
 | M. J. Smith, A. Tamerus, Z. Hawkhead,           |
 | V. Ravindran, T. Hollins, S. A. Joyce,          |
 | R. T. Strong, A. M. Reilly                      |
 |                                                 |
 | Copyright (c) 2000 - 2023                       |
 |                                                 |
 | Please cite                                     |
 |                                                 |
 |     "First principles methods using CASTEP"     |
 |                                                 |
 |         Zeitschrift fuer Kristallographie       |
 |           220(5-6) pp. 567-570 (2005)           |
 |                                                 |
 | S. J. Clark, M. D. Segall, C. J. Pickard,       |
 | P. J. Hasnip, M. J. Probert, K. Refson,         |
 | M. C. Payne                                     |
 |                                                 |
 |       in all publications arising from          |
 |              your use of CASTEP                 |
 |                                                 |
 +-------------------------------------------------+
 |                                                 |
 |              http://www.castep.org              |
 |                                                 |
 +-------------------------------------------------+
 
 
 This version was compiled for x86_64-rhel7-intel19.0 on Oct 24 2023
 Code version:    a9f326b
 Intel(R) Math Kernel Library Version 2019.0.4 
 Fundamental constants values: CODATA 2018
 
License checkout of MS_castep successful
 
 
 Atomic calculation performed for H: 1s1
 
 Converged in 41 iterations to an ae energy of -12.488 eV
 
 Identity difference: 2.63E-05
 
   ============================================================                
   | Pseudopotential Report - Date of generation 31-03-2024   |                
   ------------------------------------------------------------                
   | Element: H Ionic charge:  1.00 Level of theory: PBE      |                
   | Atomic Solver: Koelling-Harmon                           |                
   |                                                          |                
   |               Reference Electronic Structure             |                
   |         Orbital         Occupation         Energy        |                
   |            1s              1.000           -0.239        |                
   |                                                          |                
   |                 Pseudopotential Definition               |                
   |        Beta     l      e      Rc     scheme   norm       |                
   |          1      0   -0.239   0.599     qc      0         |                
   |          2      0    0.250   0.599     qc      0         |                
   |         loc     1    0.000   0.599     pn      0         |                
   |                                                          |                
   | Augmentation charge Rinner = 0.421                       |                
   | No partial core correction                               |                
   ------------------------------------------------------------                
   | "1|0.6|9|10|15|10UU(qc=8)[]"                             |                
   ------------------------------------------------------------                
   |      Author: Chris J. Pickard, Cambridge University      |                
   ============================================================                
 
 Doing a self consistent calculation for the test configuration
 
 Atomic calculation performed for H: 1s1
 
 Converged in 41 iterations to an ae energy of -12.488 eV
 
 ---------------------------------------
 AE eigenvalue nl 10 =       -0.23860176
 ---------------------------------------
 PS eigenvalue nl 10 =       -0.23857601
 ---------------------------------------
 Maximum eigenvalue error:   2.57E-05
 
 Derived cutoff energies: C=   1 M=   6 F=  10 E=  20
 
 Checking for ghost states up to   1.51185 Ha
 
 No Ghost States Identified
 
 ***************************************
 
 Atomic calculation performed for C: 1s2 2s2 2p2
 
 Converged in 54 iterations to an ae energy of -1027.632 eV
 
 Identity difference: 2.37E-04
 
   ============================================================                
   | Pseudopotential Report - Date of generation 31-03-2024   |                
   ------------------------------------------------------------                
   | Element: C Ionic charge:  4.00 Level of theory: PBE      |                
   | Atomic Solver: Koelling-Harmon                           |                
   |                                                          |                
   |               Reference Electronic Structure             |                
   |         Orbital         Occupation         Energy        |                
   |            2s              2.000           -0.505        |                
   |            2p              2.000           -0.194        |                
   |                                                          |                
   |                 Pseudopotential Definition               |                
   |        Beta     l      e      Rc     scheme   norm       |                
   |          1      0   -0.505   1.395     qc      0         |                
   |          2      0    0.250   1.395     qc      0         |                
   |          3      1   -0.194   1.395     qc      0         |                
   |          4      1    0.250   1.395     qc      0         |                
   |         loc     2    0.000   1.395     pn      0         |                
   |                                                          |                
   | Augmentation charge Rinner = 0.983                       |                
   | Partial core correction Rc = 0.983                       |                
   ------------------------------------------------------------                
   | "2|1.4|11|12|14.7|20UU:21UU(qc=7)[]"                     |                
   ------------------------------------------------------------                
   |      Author: Chris J. Pickard, Cambridge University      |                
   ============================================================                
 
 Doing a self consistent calculation for the test configuration
 
 Atomic calculation performed for C: 1s2 2s2 2p2
 
 Converged in 54 iterations to an ae energy of -1027.632 eV
 
 ---------------------------------------
 AE eigenvalue nl 10 =      -10.04653081
 AE eigenvalue nl 20 =       -0.50533429
 AE eigenvalue nl 21 =       -0.19423807
 ---------------------------------------
 PS eigenvalue nl 20 =       -0.50531853
 PS eigenvalue nl 21 =       -0.19422214
 ---------------------------------------
 Maximum eigenvalue error:   1.59E-05
 
 Derived cutoff energies: C=   6 M=  10 F=  12 E=  16
 
 Checking for ghost states up to   1.47183 Ha
 
 No Ghost States Identified
 
 ***************************************
 
 Atomic calculation performed for N: 1s2 2s2 2p3
 
 Converged in 55 iterations to an ae energy of -1481.742 eV
 
 Identity difference: 2.27E-04
 
   ============================================================                
   | Pseudopotential Report - Date of generation 31-03-2024   |                
   ------------------------------------------------------------                
   | Element: N Ionic charge:  5.00 Level of theory: PBE      |                
   | Atomic Solver: Koelling-Harmon                           |                
   |                                                          |                
   |               Reference Electronic Structure             |                
   |         Orbital         Occupation         Energy        |                
   |            2s              2.000           -0.683        |                
   |            2p              3.000           -0.261        |                
   |                                                          |                
   |                 Pseudopotential Definition               |                
   |        Beta     l      e      Rc     scheme   norm       |                
   |          1      0   -0.683   1.100     qc      0         |                
   |          2      0    0.250   1.100     qc      0         |                
   |          3      1   -0.261   1.100     qc      0         |                
   |          4      1    0.250   1.100     qc      0         |                
   |         loc     2    0.000   1.100     pn      0         |                
   |                                                          |                
   | Augmentation charge Rinner = 0.769                       |                
   | Partial core correction Rc = 0.769                       |                
   ------------------------------------------------------------                
   | "2|1.1|12|16|19|20UU:21UU(qc=7)[]"                       |                
   ------------------------------------------------------------                
   |      Author: Chris J. Pickard, Cambridge University      |                
   ============================================================                
 
 Doing a self consistent calculation for the test configuration
 
 Atomic calculation performed for N: 1s2 2s2 2p3
 
 Converged in 55 iterations to an ae energy of -1481.742 eV
 
 ---------------------------------------
 AE eigenvalue nl 10 =      -14.13820921
 AE eigenvalue nl 20 =       -0.68290611
 AE eigenvalue nl 21 =       -0.26054797
 ---------------------------------------
 PS eigenvalue nl 20 =       -0.68291221
 PS eigenvalue nl 21 =       -0.26051708
 ---------------------------------------
 Maximum eigenvalue error:   3.09E-05
 
 Derived cutoff energies: C=  10 M=  15 F=  18 E=  23
 
 Checking for ghost states up to   1.48495 Ha
 
 No Ghost States Identified
 
 ***************************************
 
 Atomic calculation performed for O: 1s2 2s2 2p4
 
 Converged in 61 iterations to an ae energy of -2040.902 eV
 
 Identity difference: 4.10E-04
 
   ============================================================                
   | Pseudopotential Report - Date of generation 31-03-2024   |                
   ------------------------------------------------------------                
   | Element: O Ionic charge:  6.00 Level of theory: PBE      |                
   | Atomic Solver: Koelling-Harmon                           |                
   |                                                          |                
   |               Reference Electronic Structure             |                
   |         Orbital         Occupation         Energy        |                
   |            2s              2.000           -0.881        |                
   |            2p              4.000           -0.332        |                
   |                                                          |                
   |                 Pseudopotential Definition               |                
   |        Beta     l      e      Rc     scheme   norm       |                
   |          1      0   -0.881   1.100     qc      0         |                
   |          2      0    0.250   1.100     qc      0         |                
   |          3      1   -0.332   1.100     qc      0         |                
   |          4      1    0.250   1.100     qc      0         |                
   |         loc     2    0.000   1.100     pn      0         |                
   |                                                          |                
   | Augmentation charge Rinner = 0.769                       |                
   | Partial core correction Rc = 0.769                       |                
   ------------------------------------------------------------                
   | "2|1.1|14|18|21|20UU:21UU(qc=7)[]"                       |                
   ------------------------------------------------------------                
   |      Author: Chris J. Pickard, Cambridge University      |                
   ============================================================                
 
 Doing a self consistent calculation for the test configuration
 
 Atomic calculation performed for O: 1s2 2s2 2p4
 
 Converged in 61 iterations to an ae energy of -2040.902 eV
 
 ---------------------------------------
 AE eigenvalue nl 10 =      -18.91475256
 AE eigenvalue nl 20 =       -0.88057101
 AE eigenvalue nl 21 =       -0.33186952
 ---------------------------------------
 PS eigenvalue nl 20 =       -0.88059206
 PS eigenvalue nl 21 =       -0.33182157
 ---------------------------------------
 Maximum eigenvalue error:   4.80E-05
 
 Derived cutoff energies: C=  14 M=  17 F=  20 E=  22
 
 Checking for ghost states up to   1.49452 Ha
 
 No Ghost States Identified
 
 ***************************************
 
 Atomic calculation performed for Si: 1s2 2s2 2p6 3s2 3p2
 
 Converged in 54 iterations to an ae energy of -7886.857 eV
 
 Identity difference: 1.35E-04
 
   ============================================================                
   | Pseudopotential Report - Date of generation 31-03-2024   |                
   ------------------------------------------------------------                
   | Element: Si Ionic charge:  4.00 Level of theory: PBE     |                
   | Atomic Solver: Koelling-Harmon                           |                
   |                                                          |                
   |               Reference Electronic Structure             |                
   |         Orbital         Occupation         Energy        |                
   |            3s              2.000           -0.397        |                
   |            3p              2.000           -0.150        |                
   |                                                          |                
   |                 Pseudopotential Definition               |                
   |        Beta     l      e      Rc     scheme   norm       |                
   |          1      0   -0.397   1.797     qc      0         |                
   |          2      0    0.250   1.797     qc      0         |                
   |          3      1   -0.150   1.797     qc      0         |                
   |          4      1    0.250   1.797     qc      0         |                
   |          5      2    0.000   1.797     qc      0         |                
   |          6      2    0.250   1.797     qc      0         |                
   |         loc     3    0.000   1.797     pn      0         |                
   |                                                          |                
   | Augmentation charge Rinner = 1.255                       |                
   | Partial core correction Rc = 1.255                       |                
   ------------------------------------------------------------                
   | "3|1.8|3.6|5|7|30UU:31UU:32UU[]"                         |                
   ------------------------------------------------------------                
   |      Author: Chris J. Pickard, Cambridge University      |                
   ============================================================                
 
 Doing a self consistent calculation for the test configuration
 
 Atomic calculation performed for Si: 1s2 2s2 2p6 3s2 3p2
 
 Converged in 54 iterations to an ae energy of -7886.857 eV
 
 ---------------------------------------
 AE eigenvalue nl 10 =      -65.63192903
 AE eigenvalue nl 20 =       -5.12654326
 AE eigenvalue nl 21 =       -3.51173659
 AE eigenvalue nl 30 =       -0.39736430
 AE eigenvalue nl 31 =       -0.14998156
 ---------------------------------------
 PS eigenvalue nl 30 =       -0.39734922
 PS eigenvalue nl 31 =       -0.14996719
 ---------------------------------------
 Maximum eigenvalue error:   1.51E-05
 
 Derived cutoff energies: C=   1 M=   3 F=   6 E=   6
 
 Checking for ghost states up to   1.41161 Ha
 
 No Ghost States Identified
 
 ***************************************
 
 Pseudo atomic calculation performed for H 1s1
 
 Converged in 13 iterations to a total energy of -12.4790 eV
 
 Pseudo atomic calculation performed for C 2s2 2p2
 
 Converged in 17 iterations to a total energy of -148.5208 eV
 
 Pseudo atomic calculation performed for N 2s2 2p3
 
 Converged in 21 iterations to a total energy of -268.1820 eV
 
 Pseudo atomic calculation performed for O 2s2 2p4
 
 Converged in 23 iterations to a total energy of -432.6536 eV
 
 Pseudo atomic calculation performed for Si 3s2 3p2
 
 Converged in 11 iterations to a total energy of -165.0683 eV
 Calculation parallelised over 48 processes.
 Data is distributed by G-vector(48-way)

 ************************************ Title ************************************
 CASTEP calculation from BIOVIA Materials Studio 2024

 ***************************** General Parameters ******************************
  
 output verbosity                               : normal  (1)
 write checkpoint data to                       : Conf_0003.check
 type of calculation                            : geometry optimization
 stress calculation                             : off
 density difference calculation                 : off
 electron localisation func (ELF) calculation   : off
 Hirshfeld analysis                             : on
 polarisation (Berry phase) analysis            : off
 molecular orbital projected DOS                : off
 deltaSCF calculation                           : off
 unlimited duration calculation
 timing information                             : on
 memory usage estimate                          : on
 write extra output files                       : on
 write final potential to formatted file        : off
 write final density to formatted file          : off
 write BibTeX reference list                    : on
 write OTFG pseudopotential files               : on
 write electrostatic potential file             : on
 write bands file                               : on
 checkpoint writing                             : both castep_bin and check files
  
 output         length unit                     : A
 output           mass unit                     : amu
 output           time unit                     : ps
 output         charge unit                     : e
 output           spin unit                     : hbar/2
 output         energy unit                     : eV
 output          force unit                     : eV/A
 output       velocity unit                     : A/ps
 output       pressure unit                     : GPa
 output     inv_length unit                     : 1/A
 output      frequency unit                     : cm-1
 output force constant unit                     : eV/A**2
 output         volume unit                     : A**3
 output   IR intensity unit                     : (D/A)**2/amu
 output         dipole unit                     : D
 output         efield unit                     : eV/A/e
 output        entropy unit                     : J/mol/K
 output    efield chi2 unit                     : pm/V
  
 wavefunctions paging                           : none
 random number generator seed                   :    5024744
 data distribution                              : optimal for this architecture
 optimization strategy                          : balance speed and memory

 *********************** Exchange-Correlation Parameters ***********************
  
 using functional                               : Perdew Burke Ernzerhof
 relativistic treatment                         : Koelling-Harmon
 DFT+D: Semi-empirical dispersion correction    : on
 SEDC with                                      : G06 correction scheme

 ************************* Pseudopotential Parameters **************************
  
 pseudopotential representation                 : reciprocal space
 <beta|phi> representation                      : reciprocal space
 spin-orbit coupling                            : off

 **************************** Basis Set Parameters *****************************
  
 plane wave basis set cut-off                   :   600.0000   eV
 size of standard grid                          :     1.5000
 size of   fine   gmax                          :    18.8237   1/A
 largest prime factor in FFT                    :          5
 finite basis set correction                    : none

 **************************** Electronic Parameters ****************************
  
 number of  electrons                           :  74.00    
 net charge of system                           : +1.000    
 treating system as non-spin-polarized
 number of bands                                :         37

 ********************* Electronic Minimization Parameters **********************
  
 Method: Treating system as non-metallic,
         and number of  SD  steps               :          1
         and number of  CG  steps               :          4
  
 total energy / atom convergence tol.           : 0.2000E-05   eV
 eigen-energy convergence tolerance             : 0.1000E-05   eV
 max force / atom convergence tol.              : ignored
 convergence tolerance window                   :          3   cycles
 max. number of SCF cycles                      :        100
 periodic dipole correction                     : NONE

 ************************** Density Mixing Parameters **************************
  
 density-mixing scheme                          : Pulay
 max. length of mixing history                  :         20
 charge density mixing amplitude                : 0.5000    
 cut-off energy for mixing                      :  600.0       eV
 charge density mixing g-vector                 :  1.500       1/A

 *********************** Population Analysis Parameters ************************
  
 Population analysis with cutoff                :  3.000       A
 Population analysis output                     : summary and pdos components

 ********************** Geometry Optimization Parameters ***********************
  
 optimization method                            : LBFGS
 max. no. of LBFGS updates                      : unbounded
 preconditioned LBFGS is activated
 preconditioner type                            : EXP
     stabilization constant                     :     0.1000
     parameter A                                :     3.0000
     nearest neighbor distance                  : automatic
     cut-off distance                           : automatic
     parameter mu                               : automatic
 variable cell method                           : fixed basis quality
 max. number of steps                           :        300
 estimated bulk modulus                         :  500.0       GPa
 estimated <frequency>                          :  1668.       cm-1
 geom line minimiser                            : on
 with line minimiser tolerance                  :     0.4000
 total energy convergence tolerance             : 0.2000E-04   eV/atom
        max ionic |force| tolerance             : 0.5000E-01   eV/A
 max ionic |displacement| tolerance             : 0.2000E-02   A
   max |stress component| tolerance             : 0.1000       GPa
 convergence tolerance window                   :          2   steps
 backup results every                           :          5   steps
 write geom trajectory file                     : on

 *******************************************************************************
  
 
                           -------------------------------
                                      Unit Cell
                           -------------------------------
        Real Lattice(A)                      Reciprocal Lattice(1/A)
    13.4840002    -0.0000006    -0.0000006        0.465973392   0.000000000   0.000000000
     0.0000000    20.4006996    -0.0000009        0.000000013   0.307988717   0.000000000
     0.0000000     0.0000000    45.0000000        0.000000006   0.000000006   0.139626340
 
                       Lattice parameters(A)       Cell Angles
                    a =     13.484000          alpha =   90.000003
                    b =     20.400700          beta  =   90.000003
                    c =     45.000000          gamma =   90.000003
 
                       Current cell volume =         12378.736702       A**3
                                   density =             0.015698   AMU/A**3
                                           =             0.026068     g/cm^3
 
                           -------------------------------
                                     Cell Contents
                           -------------------------------
                         Total number of ions in cell =   32
                      Total number of species in cell =    5
                        Max number of any one species =   20
 
            xxxxxxxxxxxxxxxxxxxxxxxxxxxxxxxxxxxxxxxxxxxxxxxxxxxxxxxxxxxx
            x  Element    Atom        Fractional coordinates of atoms  x
            x            Number           u          v          w      x
            x----------------------------------------------------------x
            x  H            1         0.421660   0.397217   0.541645   x 
            x  H            2         0.518151   0.429525   0.518378   x 
            x  H            3         0.396697   0.509999   0.563822   x 
            x  H            4         0.491754   0.541634   0.540528   x 
            x  H            5         0.320879   0.366451   0.497656   x 
            x  H            6         0.285417   0.427890   0.471581   x 
            x  H            7         0.405287   0.344317   0.452987   x 
            x  H            8         0.498413   0.371448   0.477219   x 
            x  H            9         0.402095   0.453477   0.426987   x 
            x  H           10         0.517529   0.413333   0.425046   x 
            x  H           11         0.684066   0.485801   0.471071   x 
            x  H           12         0.456719   0.604523   0.471610   x 
            x  H           13         0.622587   0.596943   0.434617   x 
            x  H           14         0.307489   0.474804   0.518113   x 
            x  H           15         0.395153   0.502846   0.496388   x 
            x  H           16         0.521339   0.435937   0.588481   x 
            x  H           17         0.615825   0.468050   0.565333   x 
            x  H           18         0.617708   0.522695   0.615064   x 
            x  H           19         0.492603   0.548211   0.610260   x 
            x  H           20         0.587495   0.580691   0.586966   x 
            x  C            1         0.449637   0.441655   0.530514   x 
            x  C            2         0.466866   0.497406   0.552547   x 
            x  C            3         0.347906   0.409215   0.484998   x 
            x  C            4         0.433367   0.388523   0.464522   x 
            x  C            5         0.466554   0.438588   0.440510   x 
            x  C            6         0.544658   0.480211   0.576187   x 
            x  C            7         0.561518   0.535982   0.598311   x 
            x  N            1         0.370472   0.462595   0.507284   x 
            x  O            1         0.451851   0.558169   0.473688   x 
            x  O            2         0.581372   0.560979   0.429572   x 
            x  O            3         0.618915   0.493167   0.478400   x 
            x  Si           1         0.532544   0.514565   0.454940   x 
            xxxxxxxxxxxxxxxxxxxxxxxxxxxxxxxxxxxxxxxxxxxxxxxxxxxxxxxxxxxx
 
 
                         No user defined ionic velocities
 
                           -------------------------------
                                   Details of Species
                           -------------------------------
 
                               Mass of species in AMU
                                    H    1.0080000
                                    C   12.0109997
                                    N   14.0070000
                                    O   15.9989996
                                    Si   28.0849991
 
                          Electric Quadrupole Moment (Barn)
                                    H    0.0028600 Isotope  2
                                    C    0.0332700 Isotope 11
                                    N    0.0204400 Isotope 14
                                    O   -0.0255800 Isotope 17
                                    Si    1.0000000 No Isotope Defined
 
                          Files used for pseudopotentials:
                                    H 1|0.6|9|10|15|10UU(qc=8)[]
                                    C 2|1.4|11|12|14.7|20UU:21UU(qc=7)[]
                                    N 2|1.1|12|16|19|20UU:21UU(qc=7)[]
                                    O 2|1.1|14|18|21|20UU:21UU(qc=7)[]
                                    Si 3|1.8|3.6|5|7|30UU:31UU:32UU[]
 
                           -------------------------------
                              k-Points For BZ Sampling
                           -------------------------------
                       MP grid size for SCF calculation is  1  1  1
                            with an offset of   0.000  0.000  0.000
                       Number of kpoints used =             1
 
                           -------------------------------
                               Symmetry and Constraints
                           -------------------------------
 
                      Maximum deviation from symmetry =  0.00000         ANG
 
                      Number of symmetry operations   =           1
                      Number of nonlinear constraints =           3
         There are no ionic constraints specified or generated for this cell
                      Point group of crystal =     1: C1, 1, 1
                      Space group of crystal =     1: P1, P 1
 
             Set iprint > 1 for details on symmetry rotations/translations
 
                         Centre of mass is NOT constrained
 
                         Number of cell constraints= 6
                         Cell constraints are:  0 0 0 0 0 0
 
                         External pressure/stress (GPa)
                          0.00000   0.00000   0.00000
                                    0.00000   0.00000
                                              0.00000
 
                                --------------------
                                  DFT-D parameters
                                --------------------
 
                          Dispersion-correction scheme : G06       
                        Parameter s6 :   0.750000 (default)
                        Parameter d  :  20.000000 (default)
 
        xxxxxxxxxxxxxxxxxxxxxxxxxxxxxxxxxxxxxxxxxxxxxxxxxxxxxxxxxxxxxxxxxxxx
        x              Atomic DFT-D parameters                             x
        x  Species      C6            R0                                   x
        x               eV A^6        Ang                                  x
        x------------------------------------------------------------------x
        x  H             1.4510       1.0010   (default)                   x
        x  C            18.1375       1.4520   (default)                   x
        x  N            12.7481       1.3970   (default)                   x
        x  O             7.2550       1.3420   (default)                   x
        x  Si           95.6622       1.7160   (default)                   x
        xxxxxxxxxxxxxxxxxxxxxxxxxxxxxxxxxxxxxxxxxxxxxxxxxxxxxxxxxxxxxxxxxxxx
 
 
+---------------- MEMORY AND SCRATCH DISK ESTIMATES PER PROCESS --------------+
|                                                     Memory          Disk    |
| Baseline code, static data and system overhead     6530.0 MB         0.0 MB |
| BLAS internal memory storage                          0.0 MB         0.0 MB |
| Model and support data                              540.6 MB         0.0 MB |
| Electronic energy minimisation requirements          31.8 MB         0.0 MB |
| Force calculation requirements                        6.8 MB         0.0 MB |
|                                               ----------------------------- |
| Approx. total storage required per process         7102.3 MB         0.0 MB |
|                                                                             |
| Requirements will fluctuate during execution and may exceed these estimates |
+-----------------------------------------------------------------------------+
Calculating approximate eigenstates for fixed initial Hamiltonian
Cut-off for approx. calculation is  119.774 eV
Improving approx. states at cut-off of  300.000 eV
Resetting cut-off to  600.000 eV
Calculating total energy with cut-off of  600.000 eV.
------------------------------------------------------------------------ <-- SCF
SCF loop      Energy                           Energy gain       Timer   <-- SCF
                                               per atom          (sec)   <-- SCF
------------------------------------------------------------------------ <-- SCF
Initial  -2.92990332E+003                                         31.82  <-- SCF
      1  -3.20274669E+003                    8.52635524E+000      32.63  <-- SCF
      2  -3.20303833E+003                    9.11385519E-003      33.43  <-- SCF
      3  -3.19298512E+003                   -3.14162945E-001      34.59  <-- SCF
      4  -3.19184657E+003                   -3.55795488E-002      35.76  <-- SCF
      5  -3.19132331E+003                   -1.63519432E-002      36.77  <-- SCF
      6  -3.19124510E+003                   -2.44404385E-003      38.04  <-- SCF
      7  -3.19119210E+003                   -1.65628891E-003      39.06  <-- SCF
      8  -3.19118440E+003                   -2.40587409E-004      40.19  <-- SCF
      9  -3.19117010E+003                   -4.46893241E-004      41.20  <-- SCF
     10  -3.19115018E+003                   -6.22696473E-004      42.23  <-- SCF
     11  -3.19112504E+003                   -7.85528289E-004      43.29  <-- SCF
     12  -3.19105539E+003                   -2.17645319E-003      44.28  <-- SCF
     13  -3.19098303E+003                   -2.26136537E-003      45.31  <-- SCF
     14  -3.19091185E+003                   -2.22429637E-003      46.30  <-- SCF
     15  -3.19084878E+003                   -1.97092266E-003      47.29  <-- SCF
     16  -3.19080584E+003                   -1.34206053E-003      48.27  <-- SCF
     17  -3.19077225E+003                   -1.04958561E-003      49.28  <-- SCF
     18  -3.19073888E+003                   -1.04261188E-003      50.29  <-- SCF
     19  -3.19070955E+003                   -9.16850873E-004      51.31  <-- SCF
     20  -3.19068984E+003                   -6.15939311E-004      52.19  <-- SCF
     21  -3.19065683E+003                   -1.03151795E-003      53.19  <-- SCF
     22  -3.19064516E+003                   -3.64710677E-004      54.23  <-- SCF
     23  -3.19064231E+003                   -8.90683995E-005      55.31  <-- SCF
     24  -3.19064258E+003                    8.64925011E-006      56.23  <-- SCF
     25  -3.19064589E+003                    1.03494978E-004      57.16  <-- SCF
     26  -3.19065184E+003                    1.85909775E-004      58.02  <-- SCF
     27  -3.19065565E+003                    1.18863235E-004      58.82  <-- SCF
     28  -3.19065942E+003                    1.17808822E-004      59.67  <-- SCF
     29  -3.19066336E+003                    1.23058281E-004      60.46  <-- SCF
     30  -3.19066447E+003                    3.47307822E-005      61.25  <-- SCF
     31  -3.19066734E+003                    8.99334567E-005      62.04  <-- SCF
     32  -3.19066898E+003                    5.10969032E-005      62.84  <-- SCF
     33  -3.19067014E+003                    3.62399539E-005      63.63  <-- SCF
     34  -3.19067142E+003                    3.99682690E-005      64.44  <-- SCF
     35  -3.19067208E+003                    2.06690262E-005      65.25  <-- SCF
     36  -3.19067259E+003                    1.59115225E-005      66.04  <-- SCF
     37  -3.19067302E+003                    1.35156848E-005      66.84  <-- SCF
     38  -3.19067357E+003                    1.71455122E-005      67.63  <-- SCF
     39  -3.19067398E+003                    1.28036833E-005      68.43  <-- SCF
     40  -3.19067434E+003                    1.13527222E-005      69.22  <-- SCF
     41  -3.19067456E+003                    6.93242688E-006      70.02  <-- SCF
     42  -3.19067484E+003                    8.72078945E-006      70.81  <-- SCF
     43  -3.19067503E+003                    5.87136264E-006      71.61  <-- SCF
     44  -3.19067515E+003                    3.85621260E-006      72.40  <-- SCF
     45  -3.19067521E+003                    1.64694175E-006      73.19  <-- SCF
     46  -3.19067527E+003                    2.08287631E-006      73.98  <-- SCF
     47  -3.19067532E+003                    1.41926506E-006      74.77  <-- SCF
     48  -3.19067534E+003                    7.25841057E-007      75.56  <-- SCF
     49  -3.19067535E+003                    3.13926277E-007      76.35  <-- SCF
------------------------------------------------------------------------ <-- SCF
 
Final energy =  -3190.675353043     eV
(energy not corrected for finite basis set)
 
(SEDC) Total Energy Correction : -0.851796E+00 eV

Dispersion corrected final energy* =  -3191.527148782     eV

Writing analysis data to Conf_0003.castep_bin

Writing model to Conf_0003.check

WARNING - nonlinear constraints cannot be used with LBFGS algorithm
        - consider setting geom_method=DELOCALIZED
 
        => Turning nonlinear constraints OFF
 
+---------------- MEMORY AND SCRATCH DISK ESTIMATES PER PROCESS --------------+
|                                                     Memory          Disk    |
| Model and support data                              550.1 MB         0.0 MB |
| Electronic energy minimisation requirements          31.8 MB         0.0 MB |
| Geometry minimisation requirements                   34.8 MB         0.0 MB |
|                                               ----------------------------- |
| Approx. total storage required per process          616.7 MB         0.0 MB |
|                                                                             |
| Requirements will fluctuate during execution and may exceed these estimates |
+-----------------------------------------------------------------------------+
 
 
 ************************************** Forces **************************************
 *                                                                                  *
 *                           Cartesian components (eV/A)                            *
 * -------------------------------------------------------------------------------- *
 *                         x                    y                    z              *
 *                                                                                  *
 * H               1     -0.03861              0.09983             -0.15534         *
 * H               2     -0.22619              0.12006             -0.06562         *
 * H               3      0.00065             -0.01673             -0.03731         *
 * H               4     -0.05853             -0.07901             -0.01827         *
 * H               5      0.09765              0.16898             -0.02387         *
 * H               6      0.13156             -0.05264              0.02704         *
 * H               7      0.00504              0.19027              0.10030         *
 * H               8     -0.13638              0.11193              0.09862         *
 * H               9      0.03721              0.00150              0.01748         *
 * H              10     -0.05489              0.09124              0.11795         *
 * H              11      0.86134             -0.20031             -0.30344         *
 * H              12     -0.07158              0.91420              0.02941         *
 * H              13      0.65938              0.78228              0.17516         *
 * H              14     -0.54354              0.17352              0.40228         *
 * H              15      0.36599              1.24023             -0.48056         *
 * H              16      0.01435              0.05437             -0.10596         *
 * H              17     -0.13917              0.00285             -0.04121         *
 * H              18     -0.08796              0.01156             -0.10916         *
 * H              19      0.03131             -0.00045             -0.05291         *
 * H              20     -0.03900             -0.05503              0.00244         *
 * C               1     -0.33294              0.46616             -0.05297         *
 * C               2      0.06228              0.05199             -0.01731         *
 * C               3     -0.33309             -0.14023             -0.28530         *
 * C               4      0.09781              0.02514             -0.11809         *
 * C               5      0.01887              0.47755              0.18618         *
 * C               6      0.13410             -0.17911              0.08431         *
 * C               7     -0.01386              0.13640              0.05813         *
 * N               1      0.97548             -2.25172              0.79932         *
 * O               1     -0.74513             -0.60062              0.60033         *
 * O               2     -0.66728             -0.70997             -0.92166         *
 * O               3     -0.44516             -0.17003              1.06086         *
 * Si              1      0.44029             -0.66421             -0.97082         *
 *                                                                                  *
 ************************************************************************************
 EXP precond LBFGS => estimated nearest neighbor distance :  1.623       A
 EXP precond LBFGS => estimated cutoff distance :  3.245       A
 doing test perturbation to get energy scale for EXP preconditioner
 
                           -------------------------------
                                     Cell Contents
                           -------------------------------
 
            xxxxxxxxxxxxxxxxxxxxxxxxxxxxxxxxxxxxxxxxxxxxxxxxxxxxxxxxxxxxxxxxx
            x  Element         Atom        Fractional coordinates of atoms  x
            x                 Number           u          v          w      x
            x---------------------------------------------------------------x
            x  H                 1         0.422708   0.398011   0.541748   x
            x  H                 2         0.519311   0.430318   0.518523   x
            x  H                 3         0.397707   0.510735   0.563885   x
            x  H                 4         0.492889   0.542328   0.540633   x
            x  H                 5         0.321746   0.367236   0.497836   x
            x  H                 6         0.286207   0.428683   0.471802   x
            x  H                 7         0.406310   0.345088   0.453235   x
            x  H                 8         0.499555   0.372236   0.477431   x
            x  H                 9         0.403113   0.454261   0.427268   x
            x  H                10         0.518688   0.414128   0.425330   x
            x  H                11         0.685256   0.486562   0.471292   x
            x  H                12         0.457815   0.605104   0.471831   x
            x  H                13         0.623790   0.597539   0.434889   x
            x  H                14         0.308328   0.475574   0.518259   x
            x  H                15         0.396160   0.503590   0.496570   x
            x  H                16         0.522501   0.436728   0.588497   x
            x  H                17         0.617028   0.468825   0.565392   x
            x  H                18         0.618911   0.523416   0.615029   x
            x  H                19         0.493739   0.548895   0.610235   x
            x  H                20         0.588693   0.581319   0.586985   x
            x  C                 1         0.450724   0.442444   0.530638   x
            x  C                 2         0.467974   0.498156   0.552631   x
            x  C                 3         0.348827   0.410010   0.485199   x
            x  C                 4         0.434433   0.389316   0.464753   x
            x  C                 5         0.467663   0.439378   0.440775   x
            x  C                 6         0.545837   0.480977   0.576226   x
            x  C                 7         0.562706   0.536684   0.598308   x
            x  N                 1         0.371436   0.463374   0.507448   x
            x  O                 1         0.452942   0.558837   0.473906   x
            x  O                 2         0.582568   0.561642   0.429850   x
            x  O                 3         0.620119   0.493921   0.478611   x
            x  Si                1         0.533714   0.515296   0.455185   x
            xxxxxxxxxxxxxxxxxxxxxxxxxxxxxxxxxxxxxxxxxxxxxxxxxxxxxxxxxxxxxxxxx
 
 
------------------------------------------------------------------------ <-- SCF
SCF loop      Energy                           Energy gain       Timer   <-- SCF
                                               per atom          (sec)   <-- SCF
------------------------------------------------------------------------ <-- SCF
Initial  -3.19078094E+003                                         78.56  <-- SCF
      1  -3.19064959E+003                   -4.10490561E-003      79.40  <-- SCF
      2  -3.19067198E+003                    6.99818266E-004      80.56  <-- SCF
      3  -3.19064639E+003                   -7.99812843E-004      81.57  <-- SCF
      4  -3.19066270E+003                    5.09776252E-004      82.57  <-- SCF
      5  -3.19066286E+003                    4.88900102E-006      83.40  <-- SCF
      6  -3.19066302E+003                    5.19748057E-006      84.16  <-- SCF
      7  -3.19066309E+003                    2.05541536E-006      84.93  <-- SCF
      8  -3.19066314E+003                    1.68484164E-006      85.69  <-- SCF
      9  -3.19066318E+003                    1.09671234E-006      86.46  <-- SCF
     10  -3.19066321E+003                    1.00601719E-006      87.22  <-- SCF
     11  -3.19066324E+003                    7.97179751E-007      87.99  <-- SCF
------------------------------------------------------------------------ <-- SCF
 
Final energy =  -3190.663236073     eV
(energy not corrected for finite basis set)
 
(SEDC) Total Energy Correction : -0.853079E+00 eV

Dispersion corrected final energy* =  -3191.516315535     eV
 
 ************************************** Forces **************************************
 *                                                                                  *
 *                           Cartesian components (eV/A)                            *
 * -------------------------------------------------------------------------------- *
 *                         x                    y                    z              *
 *                                                                                  *
 * H               1     -0.04254              0.08400             -0.14347         *
 * H               2     -0.22528              0.11569             -0.07743         *
 * H               3      0.01978             -0.01451             -0.03173         *
 * H               4     -0.05810             -0.04614             -0.04556         *
 * H               5      0.11867              0.17357             -0.00856         *
 * H               6      0.15577             -0.06522              0.02608         *
 * H               7      0.00906              0.20685              0.10198         *
 * H               8     -0.17443              0.11546              0.09826         *
 * H               9      0.03976              0.00045              0.02308         *
 * H              10     -0.03414              0.08333              0.10112         *
 * H              11      0.86557             -0.20319             -0.30346         *
 * H              12     -0.05409              1.01364              0.03095         *
 * H              13      0.67924              0.82905              0.18832         *
 * H              14     -0.49636              0.14865              0.39638         *
 * H              15      0.36736              1.26897             -0.51021         *
 * H              16      0.00122              0.02883             -0.08539         *
 * H              17     -0.13291             -0.00408             -0.05321         *
 * H              18     -0.07305             -0.00427             -0.07869         *
 * H              19      0.04632              0.00327             -0.04004         *
 * H              20     -0.03804             -0.01221             -0.02216         *
 * C               1     -0.34724              0.45055             -0.06857         *
 * C               2      0.03133              0.05060              0.01318         *
 * C               3     -0.33431             -0.14066             -0.31187         *
 * C               4      0.07232              0.00746             -0.10915         *
 * C               5     -0.00567              0.48017              0.16557         *
 * C               6      0.12408             -0.19226              0.07003         *
 * C               7     -0.04544              0.13812              0.09896         *
 * N               1      1.05526             -2.25044              0.79749         *
 * O               1     -0.76381             -0.67328              0.60701         *
 * O               2     -0.70384             -0.71058             -0.97535         *
 * O               3     -0.47044             -0.18643              1.09325         *
 * Si              1      0.41394             -0.69537             -0.94682         *
 *                                                                                  *
 ************************************************************************************
 EXP precond LBFGS => estimated parameter mu :  1.000       eV/A**2
 LBFGS: finished iteration     0 with enthalpy= -3.19152715E+003 eV
  
 +-----------+-----------------+-----------------+------------+-----+ <-- LBFGS
 | Parameter |      value      |    tolerance    |    units   | OK? | <-- LBFGS
 +-----------+-----------------+-----------------+------------+-----+ <-- LBFGS
 |  dE/ion   |   0.000000E+000 |   2.000000E-005 |         eV | No  | <-- LBFGS
 |  |F|max   |   2.610373E+000 |   5.000000E-002 |       eV/A | No  | <-- LBFGS
 |  |dR|max  |   7.995143E-015 |   2.000000E-003 |          A | No  | <-- LBFGS
 +-----------+-----------------+-----------------+------------+-----+ <-- LBFGS
  

================================================================================
 Starting LBFGS iteration          1 ...
================================================================================
  
 +------------+-------------+-------------+-----------------+ <-- min LBFGS
 |    Step    |   lambda    |   F.delta'  |    enthalpy     | <-- min LBFGS
 +------------+-------------+-------------+-----------------+ <-- min LBFGS
 |  previous  |    0.000000 |    1.926824 |    -3191.527149 | <-- min LBFGS
 +------------+-------------+-------------+-----------------+ <-- min LBFGS
  

--------------------------------------------------------------------------------
 LBFGS: starting iteration         1 with trial guess (lambda=  0.581162)
--------------------------------------------------------------------------------
 
                           -------------------------------
                                     Cell Contents
                           -------------------------------
 
            xxxxxxxxxxxxxxxxxxxxxxxxxxxxxxxxxxxxxxxxxxxxxxxxxxxxxxxxxxxxxxxxx
            x  Element         Atom        Fractional coordinates of atoms  x
            x                 Number           u          v          w      x
            x---------------------------------------------------------------x
            x  H                 1         0.419055   0.398215   0.541667   x
            x  H                 2         0.514720   0.430571   0.518626   x
            x  H                 3         0.394404   0.510067   0.563836   x
            x  H                 4         0.489050   0.541477   0.540572   x
            x  H                 5         0.321573   0.367044   0.498197   x
            x  H                 6         0.286674   0.427466   0.472256   x
            x  H                 7         0.405967   0.346984   0.453780   x
            x  H                 8         0.497980   0.373446   0.477971   x
            x  H                 9         0.403792   0.455772   0.427518   x
            x  H                10         0.518653   0.416106   0.425765   x
            x  H                11         0.700511   0.478793   0.471508   x
            x  H                12         0.452001   0.609476   0.472152   x
            x  H                13         0.631393   0.598492   0.430895   x
            x  H                14         0.305056   0.473447   0.519930   x
            x  H                15         0.397094   0.505237   0.496687   x
            x  H                16         0.518691   0.436363   0.588042   x
            x  H                17         0.612041   0.468223   0.565040   x
            x  H                18         0.613795   0.523242   0.614434   x
            x  H                19         0.489645   0.548683   0.609784   x
            x  H                20         0.583994   0.580890   0.586614   x
            x  C                 1         0.446396   0.443011   0.530810   x
            x  C                 2         0.464622   0.497701   0.552586   x
            x  C                 3         0.347350   0.408761   0.485384   x
            x  C                 4         0.434238   0.390290   0.465007   x
            x  C                 5         0.468126   0.441769   0.441131   x
            x  C                 6         0.542197   0.480059   0.576026   x
            x  C                 7         0.558213   0.536677   0.597970   x
            x  N                 1         0.373444   0.457286   0.508967   x
            x  O                 1         0.445595   0.557454   0.474803   x
            x  O                 2         0.583144   0.557107   0.424486   x
            x  O                 3         0.626793   0.487080   0.480565   x
            x  Si                1         0.538315   0.509661   0.452214   x
            xxxxxxxxxxxxxxxxxxxxxxxxxxxxxxxxxxxxxxxxxxxxxxxxxxxxxxxxxxxxxxxxx
 
 
------------------------------------------------------------------------ <-- SCF
SCF loop      Energy                           Energy gain       Timer   <-- SCF
                                               per atom          (sec)   <-- SCF
------------------------------------------------------------------------ <-- SCF
Initial  -3.20129540E+003                                         89.35  <-- SCF
      1  -3.18621262E+003                   -4.71336979E-001      90.18  <-- SCF
      2  -3.18942975E+003                    1.00535352E-001      91.50  <-- SCF
      3  -3.18878520E+003                   -2.01421752E-002      92.65  <-- SCF
      4  -3.18887059E+003                    2.66847379E-003      93.69  <-- SCF
      5  -3.18890907E+003                    1.20242154E-003      94.76  <-- SCF
      6  -3.18890914E+003                    2.21556561E-006      95.90  <-- SCF
      7  -3.18890812E+003                   -3.17895713E-005      96.86  <-- SCF
      8  -3.18890735E+003                   -2.41355548E-005      97.78  <-- SCF
      9  -3.18890634E+003                   -3.17354364E-005      98.71  <-- SCF
     10  -3.18890599E+003                   -1.07251328E-005      99.55  <-- SCF
     11  -3.18890589E+003                   -3.14901919E-006     100.43  <-- SCF
     12  -3.18890633E+003                    1.35284635E-005     101.20  <-- SCF
     13  -3.18890684E+003                    1.59566740E-005     101.97  <-- SCF
     14  -3.18890743E+003                    1.86274252E-005     102.75  <-- SCF
     15  -3.18890790E+003                    1.47171394E-005     103.52  <-- SCF
     16  -3.18890838E+003                    1.47665122E-005     104.29  <-- SCF
     17  -3.18890867E+003                    9.04994724E-006     105.07  <-- SCF
     18  -3.18890905E+003                    1.20070526E-005     105.85  <-- SCF
     19  -3.18890918E+003                    3.92374247E-006     106.62  <-- SCF
     20  -3.18890934E+003                    5.12344510E-006     107.40  <-- SCF
     21  -3.18890943E+003                    2.88995512E-006     108.19  <-- SCF
     22  -3.18890949E+003                    1.94226079E-006     108.99  <-- SCF
     23  -3.18890955E+003                    1.68950656E-006     109.81  <-- SCF
     24  -3.18890965E+003                    3.07197835E-006     110.60  <-- SCF
     25  -3.18890965E+003                    1.22150108E-007     111.39  <-- SCF
     26  -3.18890974E+003                    2.82343192E-006     112.18  <-- SCF
     27  -3.18890981E+003                    2.07524446E-006     112.97  <-- SCF
     28  -3.18890985E+003                    1.33760426E-006     113.75  <-- SCF
     29  -3.18890998E+003                    4.12327550E-006     114.54  <-- SCF
     30  -3.18891003E+003                    1.45289262E-006     115.33  <-- SCF
     31  -3.18891017E+003                    4.39945072E-006     116.12  <-- SCF
     32  -3.18891027E+003                    3.26119865E-006     116.90  <-- SCF
     33  -3.18891038E+003                    3.34302529E-006     117.69  <-- SCF
     34  -3.18891056E+003                    5.54058846E-006     118.48  <-- SCF
     35  -3.18891066E+003                    3.18538906E-006     119.27  <-- SCF
     36  -3.18891085E+003                    5.79498156E-006     120.06  <-- SCF
     37  -3.18891093E+003                    2.50233386E-006     120.85  <-- SCF
     38  -3.18891105E+003                    3.91519014E-006     121.64  <-- SCF
     39  -3.18891110E+003                    1.69230334E-006     122.42  <-- SCF
     40  -3.18891117E+003                    2.02644078E-006     123.21  <-- SCF
     41  -3.18891118E+003                    3.35835034E-007     124.03  <-- SCF
     42  -3.18891120E+003                    7.70066826E-007     124.84  <-- SCF
------------------------------------------------------------------------ <-- SCF
 
Final energy =  -3188.911204933     eV
(energy not corrected for finite basis set)
 
(SEDC) Total Energy Correction : -0.846712E+00 eV

Dispersion corrected final energy* =  -3189.757916667     eV
 
 ************************************** Forces **************************************
 *                                                                                  *
 *                           Cartesian components (eV/A)                            *
 * -------------------------------------------------------------------------------- *
 *                         x                    y                    z              *
 *                                                                                  *
 * H               1      0.30007             -0.14154              0.35721         *
 * H               2      0.04999              0.01988              0.19052         *
 * H               3     -0.07025              0.05271              0.02747         *
 * H               4      0.03651              0.18405             -0.12623         *
 * H               5     -0.11011             -0.71394             -0.13767         *
 * H               6     -0.47268              0.43523             -0.15180         *
 * H               7      0.01750             -0.28019             -0.42173         *
 * H               8      0.12223              0.02713              0.10665         *
 * H               9      0.01315              0.15898             -0.03124         *
 * H              10     -0.06742             -0.24126             -0.13127         *
 * H              11     -3.51876              0.59284              1.34190         *
 * H              12     -0.28548             -3.48397              0.52480         *
 * H              13     -2.44278             -3.27884             -0.99614         *
 * H              14      1.72026             -0.76152             -0.89907         *
 * H              15     -0.41502             -1.39545              0.86383         *
 * H              16     -0.09540             -0.30056              0.16482         *
 * H              17      0.27717             -0.08913             -0.16578         *
 * H              18      0.17045             -0.03210              0.24249         *
 * H              19     -0.16469              0.02585              0.05282         *
 * H              20      0.06531              0.14495             -0.14373         *
 * C               1      1.30902             -1.66936              0.73500         *
 * C               2     -0.19186              0.15851              0.20568         *
 * C               3      1.05549             -0.23137              0.45931         *
 * C               4     -0.00613              0.35731              0.11333         *
 * C               5     -1.23408             -2.29525             -0.58658         *
 * C               6     -0.16326              0.49519              0.06899         *
 * C               7     -0.06627             -0.28476             -0.20740         *
 * N               1     -2.79939              4.88484             -1.80420         *
 * O               1      1.98176              1.83562             -1.72857         *
 * O               2      1.78065              2.00519              2.14577         *
 * O               3      1.55899              0.12818             -3.37132         *
 * Si              1      1.64505              3.69277              3.30215         *
 *                                                                                  *
 ************************************************************************************
  
 +------------+-------------+-------------+-----------------+ <-- min LBFGS
 |    Step    |   lambda    |   F.delta'  |    enthalpy     | <-- min LBFGS
 +------------+-------------+-------------+-----------------+ <-- min LBFGS
 |  previous  |    0.000000 |    1.926824 |    -3191.527149 | <-- min LBFGS
 | trial step |    0.581162 |   -5.250454 |    -3189.757917 | <-- min LBFGS
 +------------+-------------+-------------+-----------------+ <-- min LBFGS
  

--------------------------------------------------------------------------------
 LBFGS: improving iteration         1 with line minimization (lambda=  0.156020)
--------------------------------------------------------------------------------
 
                           -------------------------------
                                     Cell Contents
                           -------------------------------
 
            xxxxxxxxxxxxxxxxxxxxxxxxxxxxxxxxxxxxxxxxxxxxxxxxxxxxxxxxxxxxxxxxx
            x  Element         Atom        Fractional coordinates of atoms  x
            x                 Number           u          v          w      x
            x---------------------------------------------------------------x
            x  H                 1         0.420960   0.397485   0.541651   x
            x  H                 2         0.517230   0.429806   0.518445   x
            x  H                 3         0.396081   0.510017   0.563826   x
            x  H                 4         0.491028   0.541592   0.540539   x
            x  H                 5         0.321065   0.366610   0.497801   x
            x  H                 6         0.285754   0.427776   0.471762   x
            x  H                 7         0.405470   0.345033   0.453200   x
            x  H                 8         0.498297   0.371985   0.477421   x
            x  H                 9         0.402550   0.454093   0.427129   x
            x  H                10         0.517831   0.414077   0.425239   x
            x  H                11         0.688481   0.483920   0.471188   x
            x  H                12         0.455452   0.605853   0.471755   x
            x  H                13         0.624951   0.597359   0.433618   x
            x  H                14         0.306836   0.474440   0.518601   x
            x  H                15         0.395674   0.503488   0.496468   x
            x  H                16         0.520628   0.436051   0.588363   x
            x  H                17         0.614809   0.468097   0.565254   x
            x  H                18         0.616658   0.522842   0.614895   x
            x  H                19         0.491809   0.548338   0.610132   x
            x  H                20         0.586555   0.580744   0.586871   x
            x  C                 1         0.448767   0.442019   0.530594   x
            x  C                 2         0.466263   0.497485   0.552557   x
            x  C                 3         0.347756   0.409093   0.485102   x
            x  C                 4         0.433601   0.388997   0.464652   x
            x  C                 5         0.466976   0.439442   0.440677   x
            x  C                 6         0.543998   0.480170   0.576143   x
            x  C                 7         0.560631   0.536169   0.598219   x
            x  N                 1         0.371270   0.461170   0.507736   x
            x  O                 1         0.450172   0.557977   0.473987   x
            x  O                 2         0.581847   0.559940   0.428206   x
            x  O                 3         0.621030   0.491533   0.478981   x
            x  Si                1         0.534093   0.513249   0.454208   x
            xxxxxxxxxxxxxxxxxxxxxxxxxxxxxxxxxxxxxxxxxxxxxxxxxxxxxxxxxxxxxxxxx
 
 
------------------------------------------------------------------------ <-- SCF
SCF loop      Energy                           Energy gain       Timer   <-- SCF
                                               per atom          (sec)   <-- SCF
------------------------------------------------------------------------ <-- SCF
Initial  -3.21091902E+003                                        126.19  <-- SCF
      1  -3.18985701E+003                   -6.58187939E-001     127.00  <-- SCF
      2  -3.19106266E+003                    3.76766568E-002     128.09  <-- SCF
      3  -3.19070393E+003                   -1.12103462E-002     129.09  <-- SCF
      4  -3.19079019E+003                    2.69567324E-003     130.13  <-- SCF
      5  -3.19082011E+003                    9.34902962E-004     131.16  <-- SCF
      6  -3.19082048E+003                    1.16335990E-005     132.19  <-- SCF
      7  -3.19081985E+003                   -1.97703863E-005     133.11  <-- SCF
      8  -3.19081926E+003                   -1.84644171E-005     133.95  <-- SCF
      9  -3.19081883E+003                   -1.31614411E-005     134.88  <-- SCF
     10  -3.19081913E+003                    9.31467627E-006     135.65  <-- SCF
     11  -3.19081946E+003                    1.01704502E-005     136.46  <-- SCF
     12  -3.19081979E+003                    1.04411853E-005     137.23  <-- SCF
     13  -3.19081997E+003                    5.63400775E-006     138.00  <-- SCF
     14  -3.19082021E+003                    7.55314763E-006     138.77  <-- SCF
     15  -3.19082034E+003                    3.95500263E-006     139.59  <-- SCF
     16  -3.19082038E+003                    1.06503252E-006     140.36  <-- SCF
     17  -3.19082052E+003                    4.61349285E-006     141.14  <-- SCF
     18  -3.19082059E+003                    1.95651063E-006     141.92  <-- SCF
     19  -3.19082067E+003                    2.57634787E-006     142.70  <-- SCF
     20  -3.19082073E+003                    1.94698023E-006     143.48  <-- SCF
     21  -3.19082087E+003                    4.42223007E-006     144.26  <-- SCF
     22  -3.19082091E+003                    1.19340478E-006     145.05  <-- SCF
     23  -3.19082098E+003                    2.33948142E-006     145.84  <-- SCF
     24  -3.19082101E+003                    8.85332469E-007     146.63  <-- SCF
     25  -3.19082106E+003                    1.56431159E-006     147.42  <-- SCF
     26  -3.19082109E+003                    8.40508432E-007     148.21  <-- SCF
     27  -3.19082116E+003                    2.05901652E-006     148.99  <-- SCF
     28  -3.19082120E+003                    1.24513189E-006     149.78  <-- SCF
     29  -3.19082128E+003                    2.69139575E-006     150.56  <-- SCF
     30  -3.19082131E+003                    8.38130486E-007     151.35  <-- SCF
     31  -3.19082139E+003                    2.58710776E-006     152.14  <-- SCF
     32  -3.19082143E+003                    1.20727599E-006     152.93  <-- SCF
     33  -3.19082160E+003                    5.18541287E-006     153.72  <-- SCF
     34  -3.19082161E+003                    3.98831223E-007     154.55  <-- SCF
     35  -3.19082173E+003                    3.78299707E-006     155.34  <-- SCF
     36  -3.19082178E+003                    1.60105864E-006     156.13  <-- SCF
     37  -3.19082188E+003                    3.10503883E-006     156.92  <-- SCF
     38  -3.19082194E+003                    1.89405093E-006     157.70  <-- SCF
     39  -3.19082202E+003                    2.48942746E-006     158.49  <-- SCF
     40  -3.19082206E+003                    1.24496039E-006     159.28  <-- SCF
     41  -3.19082211E+003                    1.46480594E-006     160.07  <-- SCF
     42  -3.19082212E+003                    5.06229902E-007     160.85  <-- SCF
------------------------------------------------------------------------ <-- SCF
 
Final energy =  -3190.822123490     eV
(energy not corrected for finite basis set)
 
(SEDC) Total Energy Correction : -0.850175E+00 eV

Dispersion corrected final energy* =  -3191.672298656     eV
 
 ************************************** Forces **************************************
 *                                                                                  *
 *                           Cartesian components (eV/A)                            *
 * -------------------------------------------------------------------------------- *
 *                         x                    y                    z              *
 *                                                                                  *
 * H               1      0.04946              0.04505             -0.03320         *
 * H               2     -0.17232              0.09316              0.00591         *
 * H               3     -0.01167              0.00131             -0.01513         *
 * H               4     -0.03560             -0.01163             -0.04094         *
 * H               5      0.04727             -0.05832             -0.05168         *
 * H               6     -0.02254              0.06859             -0.01562         *
 * H               7      0.01028              0.07796             -0.03277         *
 * H               8     -0.07008              0.09095              0.10433         *
 * H               9      0.02781              0.04289              0.00832         *
 * H              10     -0.06725             -0.00135              0.06216         *
 * H              11     -0.78822              0.12019              0.28038         *
 * H              12     -0.12999             -0.67147              0.17270         *
 * H              13     -0.55985             -0.80627             -0.26809         *
 * H              14      0.19748             -0.10382             -0.03154         *
 * H              15     -0.01442              0.14684              0.12171         *
 * H              16     -0.01007             -0.03867             -0.03347         *
 * H              17     -0.03492             -0.02198             -0.06836         *
 * H              18     -0.04510             -0.00050             -0.00952         *
 * H              19     -0.02603              0.00444             -0.02079         *
 * H              20     -0.01567             -0.00503             -0.03225         *
 * C               1     -0.04264             -0.05484              0.02021         *
 * C               2     -0.00707              0.07686              0.04425         *
 * C               3      0.01729             -0.16824             -0.08665         *
 * C               4      0.06664              0.11224             -0.05196         *
 * C               5     -0.18944             -0.14747              0.00204         *
 * C               6      0.05266             -0.00057              0.08373         *
 * C               7     -0.02776              0.02092             -0.00900         *
 * N               1      0.25578             -0.01648              0.03358         *
 * O               1      0.41043              0.10860             -0.36124         *
 * O               2      0.32223              0.46479              0.09660         *
 * O               3      0.27643             -0.01845             -0.47058         *
 * Si              1      0.53686              0.65030              0.59689         *
 *                                                                                  *
 ************************************************************************************
  
 +------------+-------------+-------------+-----------------+ <-- min LBFGS
 |    Step    |   lambda    |   F.delta'  |    enthalpy     | <-- min LBFGS
 +------------+-------------+-------------+-----------------+ <-- min LBFGS
 |  previous  |    0.000000 |    1.926824 |    -3191.527149 | <-- min LBFGS
 | trial step |    0.581162 |   -5.250454 |    -3189.757917 | <-- min LBFGS
 |  line step |    0.156020 |   -0.554701 |    -3191.672299 | <-- min LBFGS
 +------------+-------------+-------------+-----------------+ <-- min LBFGS
  
 LBFGS: finished iteration     1 with enthalpy= -3.19167230E+003 eV
  
 +-----------+-----------------+-----------------+------------+-----+ <-- LBFGS
 | Parameter |      value      |    tolerance    |    units   | OK? | <-- LBFGS
 +-----------+-----------------+-----------------+------------+-----+ <-- LBFGS
 |  dE/ion   |   4.535934E-003 |   2.000000E-005 |         eV | No  | <-- LBFGS
 |  |F|max   |   1.033143E+000 |   5.000000E-002 |       eV/A | No  | <-- LBFGS
 |  |dR|max  |   7.103188E-002 |   2.000000E-003 |          A | No  | <-- LBFGS
 +-----------+-----------------+-----------------+------------+-----+ <-- LBFGS
  

================================================================================
 Starting LBFGS iteration          2 ...
================================================================================
  
 +------------+-------------+-------------+-----------------+ <-- min LBFGS
 |    Step    |   lambda    |   F.delta'  |    enthalpy     | <-- min LBFGS
 +------------+-------------+-------------+-----------------+ <-- min LBFGS
 |  previous  |    0.000000 |    0.698174 |    -3191.672299 | <-- min LBFGS
 +------------+-------------+-------------+-----------------+ <-- min LBFGS
  

--------------------------------------------------------------------------------
 LBFGS: starting iteration         2 with trial guess (lambda=  1.000000)
--------------------------------------------------------------------------------
 
                           -------------------------------
                                     Cell Contents
                           -------------------------------
 
            xxxxxxxxxxxxxxxxxxxxxxxxxxxxxxxxxxxxxxxxxxxxxxxxxxxxxxxxxxxxxxxxx
            x  Element         Atom        Fractional coordinates of atoms  x
            x                 Number           u          v          w      x
            x---------------------------------------------------------------x
            x  H                 1         0.421357   0.398856   0.541462   x
            x  H                 2         0.514806   0.431617   0.518529   x
            x  H                 3         0.395319   0.510603   0.563548   x
            x  H                 4         0.489783   0.541939   0.540216   x
            x  H                 5         0.324705   0.366948   0.497920   x
            x  H                 6         0.289137   0.428241   0.472093   x
            x  H                 7         0.407302   0.348571   0.453850   x
            x  H                 8         0.498576   0.375183   0.478409   x
            x  H                 9         0.403982   0.456680   0.428082   x
            x  H                10         0.517643   0.416797   0.426529   x
            x  H                11         0.680346   0.482508   0.472409   x
            x  H                12         0.456186   0.599788   0.472691   x
            x  H                13         0.620413   0.589145   0.430469   x
            x  H                14         0.310665   0.473194   0.519645   x
            x  H                15         0.400648   0.505321   0.496917   x
            x  H                16         0.518775   0.436440   0.587617   x
            x  H                17         0.611980   0.468438   0.564499   x
            x  H                18         0.612741   0.523606   0.613937   x
            x  H                19         0.488762   0.549102   0.609252   x
            x  H                20         0.583263   0.581280   0.586032   x
            x  C                 1         0.448117   0.443287   0.530695   x
            x  C                 2         0.465487   0.498409   0.552377   x
            x  C                 3         0.350296   0.408762   0.485188   x
            x  C                 4         0.435707   0.391808   0.465170   x
            x  C                 5         0.467210   0.442031   0.441718   x
[...]
 * H              18     -0.00818              0.00635             -0.00887         *
 * H              19      0.00022             -0.00108              0.00159         *
 * H              20     -0.00228             -0.00186              0.00386         *
 * C               1      0.01289              0.00130             -0.00067         *
 * C               2     -0.00366             -0.00667             -0.01031         *
 * C               3     -0.00051             -0.00330              0.01499         *
 * C               4      0.01131              0.00647             -0.00507         *
 * C               5     -0.00244             -0.00289             -0.00163         *
 * C               6     -0.01045              0.00045              0.00642         *
 * C               7      0.00909             -0.00715              0.00563         *
 * N               1     -0.00247             -0.01660             -0.01124         *
 * O               1     -0.00605             -0.00627              0.00229         *
 * O               2     -0.00034             -0.00859              0.00444         *
 * O               3     -0.00311              0.00845             -0.00401         *
 * Si              1      0.00075              0.00446              0.00003         *
 *                                                                                  *
 ************************************************************************************
 
 Pseudo atomic calculation performed for H 1s1
 
 Converged in 13 iterations to a total energy of -12.4790 eV
 
 Pseudo atomic calculation performed for C 2s2 2p2
 
 Converged in 17 iterations to a total energy of -148.5208 eV
 
 Pseudo atomic calculation performed for N 2s2 2p3
 
 Converged in 21 iterations to a total energy of -268.1820 eV
 
 Pseudo atomic calculation performed for O 2s2 2p4
 
 Converged in 23 iterations to a total energy of -432.6536 eV
 
 Pseudo atomic calculation performed for Si 3s2 3p2
 
 Converged in 11 iterations to a total energy of -165.0683 eV
Charge spilling parameter for spin component 1 = 1.52%
 
            Orbital Populations       
     Ion    Atom   Orbital             Charge
  -------------------------------------------
      H     1      S                    0.699
      H     2      S                    0.706
      H     3      S                    0.742
      H     4      S                    0.742
      H     5      S                    0.685
      H     6      S                    0.690
      H     7      S                    0.678
      H     8      S                    0.730
      H     9      S                    0.707
      H    10      S                    0.687
      H    11      S                    0.459
      H    12      S                    0.460
      H    13      S                    0.456
      H    14      S                    0.518
      H    15      S                    0.574
      H    16      S                    0.724
      H    17      S                    0.733
      H    18      S                    0.703
      H    19      S                    0.726
      H    20      S                    0.737
      C     1      S                    1.288
      C     1      Px                   1.008
      C     1      Py                   1.133
      C     1      Pz                   0.960
      C     2      S                    1.293
      C     2      Px                   1.137
      C     2      Py                   1.055
      C     2      Pz                   1.022
      C     3      S                    1.303
      C     3      Px                   1.116
      C     3      Py                   1.013
      C     3      Pz                   0.988
      C     4      S                    1.300
      C     4      Px                   1.062
      C     4      Py                   1.124
      C     4      Pz                   1.043
      C     5      S                    1.408
      C     5      Px                   1.248
      C     5      Py                   1.182
      C     5      Pz                   1.151
      C     6      S                    1.304
      C     6      Px                   1.089
      C     6      Py                   1.098
      C     6      Pz                   1.019
      C     7      S                    1.399
      C     7      Px                   1.208
      C     7      Py                   1.062
      C     7      Pz                   1.123
      N     1      S                    1.574
      N     1      Px                   1.350
      N     1      Py                   1.370
      N     1      Pz                   1.305
      O     1      S                    1.848
      O     1      Px                   1.837
      O     1      Py                   1.582
      O     1      Pz                   1.805
      O     2      S                    1.851
      O     2      Px                   1.789
      O     2      Py                   1.645
      O     2      Pz                   1.797
      O     3      S                    1.857
      O     3      Px                   1.550
      O     3      Py                   1.863
      O     3      Pz                   1.828
     Si     1      S                    0.739
     Si     1      Px                   0.356
     Si     1      Py                   0.459
     Si     1      Pz                   0.301
  -------------------------------------------
                           Total:      74.000
  -------------------------------------------
 
     Atomic Populations (Mulliken)
     -----------------------------
Species          Ion     s       p       d       f      Total   Charge (e)
==========================================================================
  H               1     0.699   0.000   0.000   0.000   0.699     0.301
  H               2     0.706   0.000   0.000   0.000   0.706     0.294
  H               3     0.742   0.000   0.000   0.000   0.742     0.258
  H               4     0.742   0.000   0.000   0.000   0.742     0.258
  H               5     0.685   0.000   0.000   0.000   0.685     0.315
  H               6     0.690   0.000   0.000   0.000   0.690     0.310
  H               7     0.678   0.000   0.000   0.000   0.678     0.322
  H               8     0.730   0.000   0.000   0.000   0.730     0.270
  H               9     0.707   0.000   0.000   0.000   0.707     0.293
  H              10     0.687   0.000   0.000   0.000   0.687     0.313
  H              11     0.459   0.000   0.000   0.000   0.459     0.541
  H              12     0.460   0.000   0.000   0.000   0.460     0.540
  H              13     0.456   0.000   0.000   0.000   0.456     0.544
  H              14     0.518   0.000   0.000   0.000   0.518     0.482
  H              15     0.574   0.000   0.000   0.000   0.574     0.426
  H              16     0.724   0.000   0.000   0.000   0.724     0.276
  H              17     0.733   0.000   0.000   0.000   0.733     0.267
  H              18     0.703   0.000   0.000   0.000   0.703     0.297
  H              19     0.726   0.000   0.000   0.000   0.726     0.274
  H              20     0.737   0.000   0.000   0.000   0.737     0.263
  C               1     1.288   3.102   0.000   0.000   4.391    -0.391
  C               2     1.293   3.214   0.000   0.000   4.507    -0.507
  C               3     1.303   3.117   0.000   0.000   4.420    -0.420
  C               4     1.300   3.228   0.000   0.000   4.528    -0.528
  C               5     1.408   3.581   0.000   0.000   4.988    -0.988
  C               6     1.304   3.206   0.000   0.000   4.510    -0.510
  C               7     1.399   3.392   0.000   0.000   4.791    -0.791
  N               1     1.574   4.026   0.000   0.000   5.599    -0.599
  O               1     1.848   5.224   0.000   0.000   7.072    -1.072
  O               2     1.851   5.231   0.000   0.000   7.082    -1.082
  O               3     1.857   5.241   0.000   0.000   7.097    -1.097
  Si              1     0.739   1.117   0.000   0.000   1.856     2.144
==========================================================================
 
                 Bond                   Population      Length (A)
======================================================================
              H 13 -- O 2                    0.53        0.96787
              H 11 -- O 3                    0.53        0.96916
              H 12 -- O 1                    0.52        0.97069
              H 14 -- N 1                    0.68        1.02681
              H 15 -- N 1                    0.64        1.05723
              H 2  -- C 1                    0.87        1.09708
              H 18 -- C 7                    0.81        1.09800
              H 5  -- C 3                    0.85        1.09800
              H 1  -- C 1                    0.85        1.09899
              H 6  -- C 3                    0.84        1.09905
              H 19 -- C 7                    0.81        1.09922
              H 7  -- C 4                    0.84        1.09995
              H 8  -- C 4                    0.85        1.10007
              H 20 -- C 7                    0.81        1.10039
              H 17 -- C 6                    0.84        1.10164
              H 10 -- C 5                    0.81        1.10181
              H 16 -- C 6                    0.84        1.10222
              H 4  -- C 2                    0.85        1.10234
              H 9  -- C 5                    0.81        1.10240
              H 3  -- C 2                    0.85        1.10487
               C 1 -- N 1                    0.52        1.50609
               C 3 -- N 1                    0.51        1.50980
               C 1 -- C 2                    0.71        1.51981
               C 3 -- C 4                    0.70        1.52369
               C 6 -- C 7                    0.65        1.52722
               C 2 -- C 6                    0.69        1.53145
               C 4 -- C 5                    0.65        1.54115
               O 2 -- Si 1                   0.54        1.62860
               O 3 -- Si 1                   0.49        1.65554
              H 14 -- H 15                  -0.10        1.67382
               O 1 -- Si 1                   0.43        1.68100
              H 15 -- O 1                    0.11        1.68361
              H 9  -- H 10                  -0.09        1.74837
              H 7  -- H 8                   -0.11        1.75133
              H 16 -- H 17                  -0.12        1.76956
              H 18 -- H 19                  -0.10        1.77546
              H 3  -- H 4                   -0.12        1.77695
              H 18 -- H 20                  -0.10        1.77861
              H 19 -- H 20                  -0.11        1.78012
              H 5  -- H 6                   -0.10        1.78669
              H 1  -- H 2                   -0.11        1.79229
               C 5 -- Si 1                   0.63        1.86258
              H 14 -- C 1                   -0.13        2.06512
              H 14 -- C 3                   -0.14        2.07541
              H 15 -- C 1                   -0.12        2.09237
              H 7  -- C 3                   -0.14        2.09698
              H 6  -- N 1                   -0.12        2.09706
              H 5  -- N 1                   -0.12        2.10089
              H 2  -- N 1                   -0.11        2.10537
              H 15 -- C 3                   -0.11        2.11080
              H 1  -- N 1                   -0.11        2.11478
              H 4  -- C 1                   -0.14        2.14702
              H 10 -- C 4                   -0.11        2.15580
              H 7  -- C 5                   -0.13        2.15891
              H 17 -- C 2                   -0.13        2.15976
              H 16 -- C 2                   -0.13        2.16142
              H 8  -- C 3                   -0.13        2.16253
              H 3  -- C 1                   -0.13        2.16361
              H 3  -- C 6                   -0.12        2.16463
              H 4  -- C 6                   -0.12        2.16469
              H 17 -- C 7                   -0.13        2.16489
              H 16 -- C 7                   -0.13        2.16726
              H 2  -- C 2                   -0.12        2.16738
              H 5  -- C 4                   -0.13        2.16828
              H 6  -- C 4                   -0.13        2.17003
              H 20 -- C 6                   -0.12        2.17662
              H 19 -- C 6                   -0.12        2.17676
              H 18 -- C 6                   -0.12        2.17870
              H 1  -- C 2                   -0.12        2.18242
              H 9  -- C 4                   -0.11        2.18438
              H 8  -- C 5                   -0.13        2.19248
              H 2  -- H 8                   -0.04        2.20831
              H 11 -- Si 1                  -0.12        2.27925
              H 13 -- Si 1                  -0.13        2.30896
              H 6  -- H 14                  -0.04        2.31943
              H 12 -- Si 1                  -0.12        2.32122
              H 12 -- H 15                  -0.02        2.34370
              H 5  -- H 7                   -0.04        2.35772
              H 2  -- H 15                  -0.03        2.38120
              H 3  -- H 14                  -0.01        2.38121
              H 5  -- H 14                  -0.03        2.38649
              H 7  -- H 10                  -0.05        2.38820
              H 10 -- Si 1                  -0.13        2.40198
              H 6  -- H 15                  -0.03        2.41473
              H 1  -- H 14                  -0.03        2.43279
              H 9  -- Si 1                  -0.12        2.44706
              H 2  -- H 4                   -0.04        2.46661
              H 1  -- H 5                   -0.01        2.47918
               C 2 -- N 1                   -0.14        2.48112
              H 3  -- H 16                  -0.04        2.48256
              H 4  -- H 15                  -0.01        2.48732
              H 16 -- H 18                  -0.03        2.50606
              H 17 -- H 18                  -0.03        2.51325
              H 6  -- H 7                   -0.02        2.51385
              H 17 -- H 20                  -0.03        2.51795
               C 1 -- C 6                   -0.14        2.52639
              H 16 -- H 19                  -0.03        2.52994
               C 2 -- C 7                   -0.16        2.53209
              H 5  -- H 8                   -0.02        2.53376
              H 4  -- H 17                  -0.03        2.53652
              H 4  -- H 20                  -0.01        2.53855
              H 7  -- H 9                   -0.03        2.54317
              H 6  -- H 9                   -0.01        2.54692
               C 4 -- N 1                   -0.12        2.54978
              H 1  -- H 3                   -0.03        2.55402
              H 8  -- H 10                  -0.02        2.55759
               C 1 -- C 3                   -0.13        2.55851
              H 2  -- H 17                  -0.01        2.56226
              H 1  -- H 16                  -0.01        2.59547
              H 3  -- H 19                  -0.01        2.59974
               C 3 -- C 5                   -0.15        2.59995
              H 2  -- O 3                    0.00        2.60026
               O 1 -- O 3                   -0.08        2.61056
              H 14 -- C 2                   -0.04        2.61404
              H 15 -- Si 1                  -0.05        2.68267
              H 15 -- C 2                   -0.03        2.68986
              H 3  -- N 1                   -0.03        2.69280
              H 17 -- C 1                   -0.04        2.71304
               N 1 -- O 1                   -0.13        2.71970
              H 4  -- N 1                   -0.02        2.72730
              H 4  -- C 7                   -0.04        2.72972
              H 1  -- C 3                   -0.04        2.73626
              H 5  -- C 1                   -0.04        2.75719
               O 2 -- O 3                   -0.07        2.75925
               O 1 -- O 2                   -0.06        2.77342
              H 15 -- C 4                   -0.03        2.77362
              H 8  -- N 1                   -0.02        2.77900
              H 1  -- C 6                   -0.03        2.78241
              H 6  -- C 5                   -0.04        2.78680
              H 19 -- C 2                   -0.04        2.78869
              H 16 -- C 1                   -0.03        2.78983
              H 3  -- C 7                   -0.03        2.79523
              H 20 -- C 2                   -0.04        2.79695
              H 8  -- C 1                   -0.03        2.80836
              H 2  -- C 3                   -0.02        2.80924
              H 9  -- C 3                   -0.04        2.81027
               C 5 -- O 1                   -0.10        2.81089
               C 5 -- O 2                   -0.09        2.82264
              H 2  -- C 6                   -0.03        2.82423
              H 2  -- C 4                   -0.02        2.82633
              H 10 -- O 2                   -0.01        2.89395
               C 4 -- Si 1                  -0.13        2.93096
               C 5 -- O 3                   -0.10        2.93273
              H 15 -- C 5                   -0.01        2.93527
              H 2  -- H 14                   0.03        2.94475
              H 11 -- O 2                   -0.01        2.96053
              H 4  -- H 14                  -0.00        2.96231
              H 12 -- O 3                   -0.00        2.96287
              H 1  -- H 15                   0.03        2.98357
              H 5  -- H 15                   0.03        2.98455
              H 4  -- H 12                  -0.01        2.98771
              H 9  -- O 1                   -0.01        2.98838
======================================================================
 
 
     Hirshfeld Analysis
     ------------------
Species   Ion     Hirshfeld Charge (e)
======================================
  H        1                 0.06
  H        2                 0.05
  H        3                 0.04
  H        4                 0.04
  H        5                 0.07
  H        6                 0.07
  H        7                 0.06
  H        8                 0.05
  H        9                 0.06
  H       10                 0.06
  H       11                 0.18
  H       12                 0.19
  H       13                 0.18
  H       14                 0.17
  H       15                 0.11
  H       16                 0.05
  H       17                 0.04
  H       18                 0.05
  H       19                 0.04
  H       20                 0.04
  C        1                 0.01
  C        2                -0.06
  C        3                 0.01
  C        4                -0.05
  C        5                -0.15
  C        6                -0.05
  C        7                -0.10
  N        1                 0.01
  O        1                -0.24
  O        2                -0.27
  O        3                -0.28
  Si       1                 0.49
======================================
 

Writing analysis data to Conf_0003.castep_bin

Writing model to Conf_0003.check
 
 A BibTeX formatted list of references used in this run has been written to 
 Conf_0003.bib
 
Initialisation time =     25.21 s
Calculation time    =   1078.80 s
Finalisation time   =      1.14 s
Total time          =   1105.15 s
Peak Memory Use     = 7908220 kB
 
Overall parallel efficiency rating: Satisfactory (67%)
 
Data was distributed by:-
G-vector (48-way); efficiency rating: Satisfactory (67%)
High Water Mark     = 1900720 kB
