 Job started on host drago31060178.mgmt.cc.csic.es
 at Sun Mar 31 01:08:21 2024

 +-------------------------------------------------+
 |                                                 |
 |      CCC   AA    SSS  TTTTT  EEEEE  PPPP        |
 |     C     A  A  S       T    E      P   P       |
 |     C     AAAA   SS     T    EEE    PPPP        |
 |     C     A  A     S    T    E      P           |
 |      CCC  A  A  SSS     T    EEEEE  P           |
 |                                                 |
 +-------------------------------------------------+
 |                                                 |
 | Materials Studio CASTEP version 2024            |
 | Ab Initio Total Energy Program                  |
 |                                                 |
 | Authors:                                        |
 | M. Segall, M. Probert, C. Pickard, P. Hasnip,   |
 | S. Clark, K. Refson, J. R. Yates,               |
 | A. Bartok-Partay, M. Payne                      |
 |                                                 |
 | Contributors:                                   |
 | P. Lindan, P. Haynes, J. White, V. Milman,      |
 | N. Govind, M. Gibson, P. Tulip, V. Cocula,      |
 | B. Montanari, D. Quigley, M. Glover,            |
 | L. Bernasconi, A. Perlov, M. Plummer,           |
 | E. McNellis, J. Meyer, J. Gale, D. Jochym       |
 | J. Aarons, B. Walker, R. Gillen, D. Jones       |
 | T. Green, I. J. Bush, C. J. Armstrong,          |
 | E. J. Higgins, E. L. Brown, M. S. McFly,        |
 | J. Wilkins, B-C. Shih, P. J. P. Byrne,          |
 | R. J. Maurer, J. C. Womack, J. Dziedzic,        |
 | L. LeBlanc, T. K. Stenczel, J. Kermode,         |
 | S. Sturniolo, B. Shi, B. Durham, M. Evans,      |
 | M. J. Smith, A. Tamerus, Z. Hawkhead,           |
 | V. Ravindran, T. Hollins, S. A. Joyce,          |
 | R. T. Strong, A. M. Reilly                      |
 |                                                 |
 | Copyright (c) 2000 - 2023                       |
 |                                                 |
 | Please cite                                     |
 |                                                 |
 |     "First principles methods using CASTEP"     |
 |                                                 |
 |         Zeitschrift fuer Kristallographie       |
 |           220(5-6) pp. 567-570 (2005)           |
 |                                                 |
 | S. J. Clark, M. D. Segall, C. J. Pickard,       |
 | P. J. Hasnip, M. J. Probert, K. Refson,         |
 | M. C. Payne                                     |
 |                                                 |
 |       in all publications arising from          |
 |              your use of CASTEP                 |
 |                                                 |
 +-------------------------------------------------+
 |                                                 |
 |              http://www.castep.org              |
 |                                                 |
 +-------------------------------------------------+
 
 
 This version was compiled for x86_64-rhel7-intel19.0 on Oct 24 2023
 Code version:    a9f326b
 Intel(R) Math Kernel Library Version 2019.0.4 
 Fundamental constants values: CODATA 2018
 
License checkout of MS_castep successful
 
 
 Atomic calculation performed for H: 1s1
 
 Converged in 41 iterations to an ae energy of -12.488 eV
 
 Identity difference: 2.63E-05
 
   ============================================================                
   | Pseudopotential Report - Date of generation 31-03-2024   |                
   ------------------------------------------------------------                
   | Element: H Ionic charge:  1.00 Level of theory: PBE      |                
   | Atomic Solver: Koelling-Harmon                           |                
   |                                                          |                
   |               Reference Electronic Structure             |                
   |         Orbital         Occupation         Energy        |                
   |            1s              1.000           -0.239        |                
   |                                                          |                
   |                 Pseudopotential Definition               |                
   |        Beta     l      e      Rc     scheme   norm       |                
   |          1      0   -0.239   0.599     qc      0         |                
   |          2      0    0.250   0.599     qc      0         |                
   |         loc     1    0.000   0.599     pn      0         |                
   |                                                          |                
   | Augmentation charge Rinner = 0.421                       |                
   | No partial core correction                               |                
   ------------------------------------------------------------                
   | "1|0.6|9|10|15|10UU(qc=8)[]"                             |                
   ------------------------------------------------------------                
   |      Author: Chris J. Pickard, Cambridge University      |                
   ============================================================                
 
 Doing a self consistent calculation for the test configuration
 
 Atomic calculation performed for H: 1s1
 
 Converged in 41 iterations to an ae energy of -12.488 eV
 
 ---------------------------------------
 AE eigenvalue nl 10 =       -0.23860176
 ---------------------------------------
 PS eigenvalue nl 10 =       -0.23857601
 ---------------------------------------
 Maximum eigenvalue error:   2.57E-05
 
 Derived cutoff energies: C=   1 M=   6 F=  10 E=  20
 
 Checking for ghost states up to   1.51185 Ha
 
 No Ghost States Identified
 
 ***************************************
 
 Atomic calculation performed for C: 1s2 2s2 2p2
 
 Converged in 54 iterations to an ae energy of -1027.632 eV
 
 Identity difference: 2.37E-04
 
   ============================================================                
   | Pseudopotential Report - Date of generation 31-03-2024   |                
   ------------------------------------------------------------                
   | Element: C Ionic charge:  4.00 Level of theory: PBE      |                
   | Atomic Solver: Koelling-Harmon                           |                
   |                                                          |                
   |               Reference Electronic Structure             |                
   |         Orbital         Occupation         Energy        |                
   |            2s              2.000           -0.505        |                
   |            2p              2.000           -0.194        |                
   |                                                          |                
   |                 Pseudopotential Definition               |                
   |        Beta     l      e      Rc     scheme   norm       |                
   |          1      0   -0.505   1.395     qc      0         |                
   |          2      0    0.250   1.395     qc      0         |                
   |          3      1   -0.194   1.395     qc      0         |                
   |          4      1    0.250   1.395     qc      0         |                
   |         loc     2    0.000   1.395     pn      0         |                
   |                                                          |                
   | Augmentation charge Rinner = 0.983                       |                
   | Partial core correction Rc = 0.983                       |                
   ------------------------------------------------------------                
   | "2|1.4|11|12|14.7|20UU:21UU(qc=7)[]"                     |                
   ------------------------------------------------------------                
   |      Author: Chris J. Pickard, Cambridge University      |                
   ============================================================                
 
 Doing a self consistent calculation for the test configuration
 
 Atomic calculation performed for C: 1s2 2s2 2p2
 
 Converged in 54 iterations to an ae energy of -1027.632 eV
 
 ---------------------------------------
 AE eigenvalue nl 10 =      -10.04653081
 AE eigenvalue nl 20 =       -0.50533429
 AE eigenvalue nl 21 =       -0.19423807
 ---------------------------------------
 PS eigenvalue nl 20 =       -0.50531853
 PS eigenvalue nl 21 =       -0.19422214
 ---------------------------------------
 Maximum eigenvalue error:   1.59E-05
 
 Derived cutoff energies: C=   6 M=  10 F=  12 E=  16
 
 Checking for ghost states up to   1.47183 Ha
 
 No Ghost States Identified
 
 ***************************************
 
 Atomic calculation performed for N: 1s2 2s2 2p3
 
 Converged in 55 iterations to an ae energy of -1481.742 eV
 
 Identity difference: 2.27E-04
 
   ============================================================                
   | Pseudopotential Report - Date of generation 31-03-2024   |                
   ------------------------------------------------------------                
   | Element: N Ionic charge:  5.00 Level of theory: PBE      |                
   | Atomic Solver: Koelling-Harmon                           |                
   |                                                          |                
   |               Reference Electronic Structure             |                
   |         Orbital         Occupation         Energy        |                
   |            2s              2.000           -0.683        |                
   |            2p              3.000           -0.261        |                
   |                                                          |                
   |                 Pseudopotential Definition               |                
   |        Beta     l      e      Rc     scheme   norm       |                
   |          1      0   -0.683   1.100     qc      0         |                
   |          2      0    0.250   1.100     qc      0         |                
   |          3      1   -0.261   1.100     qc      0         |                
   |          4      1    0.250   1.100     qc      0         |                
   |         loc     2    0.000   1.100     pn      0         |                
   |                                                          |                
   | Augmentation charge Rinner = 0.769                       |                
   | Partial core correction Rc = 0.769                       |                
   ------------------------------------------------------------                
   | "2|1.1|12|16|19|20UU:21UU(qc=7)[]"                       |                
   ------------------------------------------------------------                
   |      Author: Chris J. Pickard, Cambridge University      |                
   ============================================================                
 
 Doing a self consistent calculation for the test configuration
 
 Atomic calculation performed for N: 1s2 2s2 2p3
 
 Converged in 55 iterations to an ae energy of -1481.742 eV
 
 ---------------------------------------
 AE eigenvalue nl 10 =      -14.13820921
 AE eigenvalue nl 20 =       -0.68290611
 AE eigenvalue nl 21 =       -0.26054797
 ---------------------------------------
 PS eigenvalue nl 20 =       -0.68291221
 PS eigenvalue nl 21 =       -0.26051708
 ---------------------------------------
 Maximum eigenvalue error:   3.09E-05
 
 Derived cutoff energies: C=  10 M=  15 F=  18 E=  23
 
 Checking for ghost states up to   1.48495 Ha
 
 No Ghost States Identified
 
 ***************************************
 
 Atomic calculation performed for O: 1s2 2s2 2p4
 
 Converged in 61 iterations to an ae energy of -2040.902 eV
 
 Identity difference: 4.10E-04
 
   ============================================================                
   | Pseudopotential Report - Date of generation 31-03-2024   |                
   ------------------------------------------------------------                
   | Element: O Ionic charge:  6.00 Level of theory: PBE      |                
   | Atomic Solver: Koelling-Harmon                           |                
   |                                                          |                
   |               Reference Electronic Structure             |                
   |         Orbital         Occupation         Energy        |                
   |            2s              2.000           -0.881        |                
   |            2p              4.000           -0.332        |                
   |                                                          |                
   |                 Pseudopotential Definition               |                
   |        Beta     l      e      Rc     scheme   norm       |                
   |          1      0   -0.881   1.100     qc      0         |                
   |          2      0    0.250   1.100     qc      0         |                
   |          3      1   -0.332   1.100     qc      0         |                
   |          4      1    0.250   1.100     qc      0         |                
   |         loc     2    0.000   1.100     pn      0         |                
   |                                                          |                
   | Augmentation charge Rinner = 0.769                       |                
   | Partial core correction Rc = 0.769                       |                
   ------------------------------------------------------------                
   | "2|1.1|14|18|21|20UU:21UU(qc=7)[]"                       |                
   ------------------------------------------------------------                
   |      Author: Chris J. Pickard, Cambridge University      |                
   ============================================================                
 
 Doing a self consistent calculation for the test configuration
 
 Atomic calculation performed for O: 1s2 2s2 2p4
 
 Converged in 61 iterations to an ae energy of -2040.902 eV
 
 ---------------------------------------
 AE eigenvalue nl 10 =      -18.91475256
 AE eigenvalue nl 20 =       -0.88057101
 AE eigenvalue nl 21 =       -0.33186952
 ---------------------------------------
 PS eigenvalue nl 20 =       -0.88059206
 PS eigenvalue nl 21 =       -0.33182157
 ---------------------------------------
 Maximum eigenvalue error:   4.80E-05
 
 Derived cutoff energies: C=  14 M=  17 F=  20 E=  22
 
 Checking for ghost states up to   1.49452 Ha
 
 No Ghost States Identified
 
 ***************************************
 
 Atomic calculation performed for Si: 1s2 2s2 2p6 3s2 3p2
 
 Converged in 54 iterations to an ae energy of -7886.857 eV
 
 Identity difference: 1.35E-04
 
   ============================================================                
   | Pseudopotential Report - Date of generation 31-03-2024   |                
   ------------------------------------------------------------                
   | Element: Si Ionic charge:  4.00 Level of theory: PBE     |                
   | Atomic Solver: Koelling-Harmon                           |                
   |                                                          |                
   |               Reference Electronic Structure             |                
   |         Orbital         Occupation         Energy        |                
   |            3s              2.000           -0.397        |                
   |            3p              2.000           -0.150        |                
   |                                                          |                
   |                 Pseudopotential Definition               |                
   |        Beta     l      e      Rc     scheme   norm       |                
   |          1      0   -0.397   1.797     qc      0         |                
   |          2      0    0.250   1.797     qc      0         |                
   |          3      1   -0.150   1.797     qc      0         |                
   |          4      1    0.250   1.797     qc      0         |                
   |          5      2    0.000   1.797     qc      0         |                
   |          6      2    0.250   1.797     qc      0         |                
   |         loc     3    0.000   1.797     pn      0         |                
   |                                                          |                
   | Augmentation charge Rinner = 1.255                       |                
   | Partial core correction Rc = 1.255                       |                
   ------------------------------------------------------------                
   | "3|1.8|3.6|5|7|30UU:31UU:32UU[]"                         |                
   ------------------------------------------------------------                
   |      Author: Chris J. Pickard, Cambridge University      |                
   ============================================================                
 
 Doing a self consistent calculation for the test configuration
 
 Atomic calculation performed for Si: 1s2 2s2 2p6 3s2 3p2
 
 Converged in 54 iterations to an ae energy of -7886.857 eV
 
 ---------------------------------------
 AE eigenvalue nl 10 =      -65.63192903
 AE eigenvalue nl 20 =       -5.12654326
 AE eigenvalue nl 21 =       -3.51173659
 AE eigenvalue nl 30 =       -0.39736430
 AE eigenvalue nl 31 =       -0.14998156
 ---------------------------------------
 PS eigenvalue nl 30 =       -0.39734922
 PS eigenvalue nl 31 =       -0.14996719
 ---------------------------------------
 Maximum eigenvalue error:   1.51E-05
 
 Derived cutoff energies: C=   1 M=   3 F=   6 E=   6
 
 Checking for ghost states up to   1.41161 Ha
 
 No Ghost States Identified
 
 ***************************************
 
 Pseudo atomic calculation performed for H 1s1
 
 Converged in 13 iterations to a total energy of -12.4790 eV
 
 Pseudo atomic calculation performed for C 2s2 2p2
 
 Converged in 17 iterations to a total energy of -148.5208 eV
 
 Pseudo atomic calculation performed for N 2s2 2p3
 
 Converged in 21 iterations to a total energy of -268.1820 eV
 
 Pseudo atomic calculation performed for O 2s2 2p4
 
 Converged in 23 iterations to a total energy of -432.6536 eV
 
 Pseudo atomic calculation performed for Si 3s2 3p2
 
 Converged in 11 iterations to a total energy of -165.0683 eV
 Calculation parallelised over 48 processes.
 Data is distributed by G-vector(48-way)

 ************************************ Title ************************************
 CASTEP calculation from BIOVIA Materials Studio 2024

 ***************************** General Parameters ******************************
  
 output verbosity                               : normal  (1)
 write checkpoint data to                       : Conf_0015.check
 type of calculation                            : geometry optimization
 stress calculation                             : off
 density difference calculation                 : off
 electron localisation func (ELF) calculation   : off
 Hirshfeld analysis                             : on
 polarisation (Berry phase) analysis            : off
 molecular orbital projected DOS                : off
 deltaSCF calculation                           : off
 unlimited duration calculation
 timing information                             : on
 memory usage estimate                          : on
 write extra output files                       : on
 write final potential to formatted file        : off
 write final density to formatted file          : off
 write BibTeX reference list                    : on
 write OTFG pseudopotential files               : on
 write electrostatic potential file             : on
 write bands file                               : on
 checkpoint writing                             : both castep_bin and check files
  
 output         length unit                     : A
 output           mass unit                     : amu
 output           time unit                     : ps
 output         charge unit                     : e
 output           spin unit                     : hbar/2
 output         energy unit                     : eV
 output          force unit                     : eV/A
 output       velocity unit                     : A/ps
 output       pressure unit                     : GPa
 output     inv_length unit                     : 1/A
 output      frequency unit                     : cm-1
 output force constant unit                     : eV/A**2
 output         volume unit                     : A**3
 output   IR intensity unit                     : (D/A)**2/amu
 output         dipole unit                     : D
 output         efield unit                     : eV/A/e
 output        entropy unit                     : J/mol/K
 output    efield chi2 unit                     : pm/V
  
 wavefunctions paging                           : none
 random number generator seed                   :   10824444
 data distribution                              : optimal for this architecture
 optimization strategy                          : balance speed and memory

 *********************** Exchange-Correlation Parameters ***********************
  
 using functional                               : Perdew Burke Ernzerhof
 relativistic treatment                         : Koelling-Harmon
 DFT+D: Semi-empirical dispersion correction    : on
 SEDC with                                      : G06 correction scheme

 ************************* Pseudopotential Parameters **************************
  
 pseudopotential representation                 : reciprocal space
 <beta|phi> representation                      : reciprocal space
 spin-orbit coupling                            : off

 **************************** Basis Set Parameters *****************************
  
 plane wave basis set cut-off                   :   600.0000   eV
 size of standard grid                          :     1.5000
 size of   fine   gmax                          :    18.8237   1/A
 largest prime factor in FFT                    :          5
 finite basis set correction                    : none

 **************************** Electronic Parameters ****************************
  
 number of  electrons                           :  74.00    
 net charge of system                           : +1.000    
 treating system as non-spin-polarized
 number of bands                                :         37

 ********************* Electronic Minimization Parameters **********************
  
 Method: Treating system as non-metallic,
         and number of  SD  steps               :          1
         and number of  CG  steps               :          4
  
 total energy / atom convergence tol.           : 0.2000E-05   eV
 eigen-energy convergence tolerance             : 0.1000E-05   eV
 max force / atom convergence tol.              : ignored
 convergence tolerance window                   :          3   cycles
 max. number of SCF cycles                      :        100
 periodic dipole correction                     : NONE

 ************************** Density Mixing Parameters **************************
  
 density-mixing scheme                          : Pulay
 max. length of mixing history                  :         20
 charge density mixing amplitude                : 0.5000    
 cut-off energy for mixing                      :  600.0       eV
 charge density mixing g-vector                 :  1.500       1/A

 *********************** Population Analysis Parameters ************************
  
 Population analysis with cutoff                :  3.000       A
 Population analysis output                     : summary and pdos components

 ********************** Geometry Optimization Parameters ***********************
  
 optimization method                            : LBFGS
 max. no. of LBFGS updates                      : unbounded
 preconditioned LBFGS is activated
 preconditioner type                            : EXP
     stabilization constant                     :     0.1000
     parameter A                                :     3.0000
     nearest neighbor distance                  : automatic
     cut-off distance                           : automatic
     parameter mu                               : automatic
 variable cell method                           : fixed basis quality
 max. number of steps                           :        300
 estimated bulk modulus                         :  500.0       GPa
 estimated <frequency>                          :  1668.       cm-1
 geom line minimiser                            : on
 with line minimiser tolerance                  :     0.4000
 total energy convergence tolerance             : 0.2000E-04   eV/atom
        max ionic |force| tolerance             : 0.5000E-01   eV/A
 max ionic |displacement| tolerance             : 0.2000E-02   A
   max |stress component| tolerance             : 0.1000       GPa
 convergence tolerance window                   :          2   steps
 backup results every                           :          5   steps
 write geom trajectory file                     : on

 *******************************************************************************
  
 
                           -------------------------------
                                      Unit Cell
                           -------------------------------
        Real Lattice(A)                      Reciprocal Lattice(1/A)
    13.4840002    -0.0000006    -0.0000006        0.465973392   0.000000000   0.000000000
     0.0000000    20.4006996    -0.0000009        0.000000013   0.307988717   0.000000000
     0.0000000     0.0000000    45.0000000        0.000000006   0.000000006   0.139626340
 
                       Lattice parameters(A)       Cell Angles
                    a =     13.484000          alpha =   90.000003
                    b =     20.400700          beta  =   90.000003
                    c =     45.000000          gamma =   90.000003
 
                       Current cell volume =         12378.736702       A**3
                                   density =             0.015698   AMU/A**3
                                           =             0.026068     g/cm^3
 
                           -------------------------------
                                     Cell Contents
                           -------------------------------
                         Total number of ions in cell =   32
                      Total number of species in cell =    5
                        Max number of any one species =   20
 
            xxxxxxxxxxxxxxxxxxxxxxxxxxxxxxxxxxxxxxxxxxxxxxxxxxxxxxxxxxxx
            x  Element    Atom        Fractional coordinates of atoms  x
            x            Number           u          v          w      x
            x----------------------------------------------------------x
            x  H            1         0.604544   0.465331   0.533541   x 
            x  H            2         0.664298   0.532988   0.551699   x 
            x  H            3         0.438037   0.507324   0.550936   x 
            x  H            4         0.497260   0.573800   0.569261   x 
            x  H            5         0.643399   0.592146   0.474304   x 
            x  H            6         0.729529   0.572453   0.502886   x 
            x  H            7         0.726094   0.457791   0.491211   x 
            x  H            8         0.725142   0.499039   0.456880   x 
            x  H            9         0.551274   0.426358   0.486283   x 
            x  H           10         0.613029   0.407585   0.452893   x 
            x  H           11         0.378502   0.566427   0.463734   x 
            x  H           12         0.414123   0.424188   0.415150   x 
            x  H           13         0.499980   0.556688   0.403406   x 
            x  H           14         0.513893   0.545302   0.503117   x 
            x  H           15         0.568467   0.606678   0.519955   x 
            x  H           16         0.527669   0.427929   0.584080   x 
            x  H           17         0.587075   0.494048   0.602366   x 
            x  H           18         0.440277   0.455444   0.631494   x 
            x  H           19         0.361061   0.470730   0.600665   x 
            x  H           20         0.420914   0.537202   0.619067   x 
            x  C            1         0.594794   0.516182   0.541275   x 
            x  C            2         0.506790   0.522196   0.562437   x 
            x  C            3         0.661661   0.555525   0.491544   x 
            x  C            4         0.679298   0.488640   0.476727   x 
            x  C            5         0.587412   0.448886   0.466799   x 
            x  C            6         0.518739   0.479926   0.590420   x 
            x  C            7         0.430462   0.486170   0.611550   x 
            x  N            1         0.577104   0.559631   0.513437   x 
            x  O            1         0.401671   0.452925   0.431299   x 
            x  O            2         0.540177   0.540843   0.419169   x 
            x  O            3         0.440521   0.547955   0.469462   x 
            x  Si           1         0.490084   0.497082   0.445415   x 
            xxxxxxxxxxxxxxxxxxxxxxxxxxxxxxxxxxxxxxxxxxxxxxxxxxxxxxxxxxxx
 
 
                         No user defined ionic velocities
 
                           -------------------------------
                                   Details of Species
                           -------------------------------
 
                               Mass of species in AMU
                                    H    1.0080000
                                    C   12.0109997
                                    N   14.0070000
                                    O   15.9989996
                                    Si   28.0849991
 
                          Electric Quadrupole Moment (Barn)
                                    H    0.0028600 Isotope  2
                                    C    0.0332700 Isotope 11
                                    N    0.0204400 Isotope 14
                                    O   -0.0255800 Isotope 17
                                    Si    1.0000000 No Isotope Defined
 
                          Files used for pseudopotentials:
                                    H 1|0.6|9|10|15|10UU(qc=8)[]
                                    C 2|1.4|11|12|14.7|20UU:21UU(qc=7)[]
                                    N 2|1.1|12|16|19|20UU:21UU(qc=7)[]
                                    O 2|1.1|14|18|21|20UU:21UU(qc=7)[]
                                    Si 3|1.8|3.6|5|7|30UU:31UU:32UU[]
 
                           -------------------------------
                              k-Points For BZ Sampling
                           -------------------------------
                       MP grid size for SCF calculation is  1  1  1
                            with an offset of   0.000  0.000  0.000
                       Number of kpoints used =             1
 
                           -------------------------------
                               Symmetry and Constraints
                           -------------------------------
 
                      Maximum deviation from symmetry =  0.00000         ANG
 
                      Number of symmetry operations   =           1
                      Number of nonlinear constraints =           3
         There are no ionic constraints specified or generated for this cell
                      Point group of crystal =     1: C1, 1, 1
                      Space group of crystal =     1: P1, P 1
 
             Set iprint > 1 for details on symmetry rotations/translations
 
                         Centre of mass is NOT constrained
 
                         Number of cell constraints= 6
                         Cell constraints are:  0 0 0 0 0 0
 
                         External pressure/stress (GPa)
                          0.00000   0.00000   0.00000
                                    0.00000   0.00000
                                              0.00000
 
                                --------------------
                                  DFT-D parameters
                                --------------------
 
                          Dispersion-correction scheme : G06       
                        Parameter s6 :   0.750000 (default)
                        Parameter d  :  20.000000 (default)
 
        xxxxxxxxxxxxxxxxxxxxxxxxxxxxxxxxxxxxxxxxxxxxxxxxxxxxxxxxxxxxxxxxxxxx
        x              Atomic DFT-D parameters                             x
        x  Species      C6            R0                                   x
        x               eV A^6        Ang                                  x
        x------------------------------------------------------------------x
        x  H             1.4510       1.0010   (default)                   x
        x  C            18.1375       1.4520   (default)                   x
        x  N            12.7481       1.3970   (default)                   x
        x  O             7.2550       1.3420   (default)                   x
        x  Si           95.6622       1.7160   (default)                   x
        xxxxxxxxxxxxxxxxxxxxxxxxxxxxxxxxxxxxxxxxxxxxxxxxxxxxxxxxxxxxxxxxxxxx
 
 
+---------------- MEMORY AND SCRATCH DISK ESTIMATES PER PROCESS --------------+
|                                                     Memory          Disk    |
| Baseline code, static data and system overhead     6530.0 MB         0.0 MB |
| BLAS internal memory storage                          0.0 MB         0.0 MB |
| Model and support data                              540.6 MB         0.0 MB |
| Electronic energy minimisation requirements          31.8 MB         0.0 MB |
| Force calculation requirements                        6.8 MB         0.0 MB |
|                                               ----------------------------- |
| Approx. total storage required per process         7102.3 MB         0.0 MB |
|                                                                             |
| Requirements will fluctuate during execution and may exceed these estimates |
+-----------------------------------------------------------------------------+
Calculating approximate eigenstates for fixed initial Hamiltonian
Cut-off for approx. calculation is  119.774 eV
Improving approx. states at cut-off of  300.000 eV
Resetting cut-off to  600.000 eV
Calculating total energy with cut-off of  600.000 eV.
------------------------------------------------------------------------ <-- SCF
SCF loop      Energy                           Energy gain       Timer   <-- SCF
                                               per atom          (sec)   <-- SCF
------------------------------------------------------------------------ <-- SCF
Initial  -2.92491644E+003                                         30.58  <-- SCF
      1  -3.20271982E+003                    8.68135570E+000      31.39  <-- SCF
      2  -3.20294834E+003                    7.14118865E-003      32.24  <-- SCF
      3  -3.19293946E+003                   -3.12777265E-001      33.27  <-- SCF
      4  -3.19180233E+003                   -3.55353818E-002      34.45  <-- SCF
      5  -3.19128250E+003                   -1.62446569E-002      35.47  <-- SCF
      6  -3.19121543E+003                   -2.09597450E-003      36.76  <-- SCF
      7  -3.19117557E+003                   -1.24583501E-003      37.78  <-- SCF
      8  -3.19117377E+003                   -5.60563263E-005      38.91  <-- SCF
      9  -3.19116688E+003                   -2.15244786E-004      39.92  <-- SCF
     10  -3.19115402E+003                   -4.01922517E-004      40.96  <-- SCF
     11  -3.19113457E+003                   -6.08009063E-004      41.98  <-- SCF
     12  -3.19106249E+003                   -2.25231431E-003      42.98  <-- SCF
     13  -3.19099163E+003                   -2.21457103E-003      44.00  <-- SCF
     14  -3.19092140E+003                   -2.19467611E-003      45.00  <-- SCF
     15  -3.19086437E+003                   -1.78197203E-003      46.00  <-- SCF
     16  -3.19083001E+003                   -1.07376557E-003      47.04  <-- SCF
     17  -3.19080503E+003                   -7.80721180E-004      48.01  <-- SCF
     18  -3.19077296E+003                   -1.00209716E-003      49.00  <-- SCF
     19  -3.19074407E+003                   -9.02736374E-004      50.04  <-- SCF
     20  -3.19072304E+003                   -6.57356252E-004      51.04  <-- SCF
     21  -3.19069786E+003                   -7.86774026E-004      51.98  <-- SCF
     22  -3.19068596E+003                   -3.71974286E-004      52.94  <-- SCF
     23  -3.19068438E+003                   -4.94247027E-005      53.95  <-- SCF
     24  -3.19068689E+003                    7.85548202E-005      54.87  <-- SCF
     25  -3.19068903E+003                    6.66879767E-005      55.70  <-- SCF
     26  -3.19069482E+003                    1.80944018E-004      56.68  <-- SCF
     27  -3.19069781E+003                    9.37009782E-005      57.60  <-- SCF
     28  -3.19070030E+003                    7.76754782E-005      58.43  <-- SCF
     29  -3.19070352E+003                    1.00513967E-004      59.24  <-- SCF
     30  -3.19070534E+003                    5.69219497E-005      60.03  <-- SCF
     31  -3.19070810E+003                    8.62996583E-005      60.83  <-- SCF
     32  -3.19070927E+003                    3.65759527E-005      61.65  <-- SCF
     33  -3.19071060E+003                    4.17134474E-005      62.47  <-- SCF
     34  -3.19071138E+003                    2.41671453E-005      63.27  <-- SCF
     35  -3.19071203E+003                    2.04864459E-005      64.06  <-- SCF
     36  -3.19071276E+003                    2.27847083E-005      64.87  <-- SCF
     37  -3.19071338E+003                    1.92360481E-005      65.67  <-- SCF
     38  -3.19071387E+003                    1.53017159E-005      66.46  <-- SCF
     39  -3.19071427E+003                    1.24828214E-005      67.26  <-- SCF
     40  -3.19071462E+003                    1.10366836E-005      68.06  <-- SCF
     41  -3.19071488E+003                    8.25613712E-006      68.86  <-- SCF
     42  -3.19071507E+003                    5.93667732E-006      69.66  <-- SCF
     43  -3.19071524E+003                    5.32524480E-006      70.46  <-- SCF
     44  -3.19071535E+003                    3.24093331E-006      71.26  <-- SCF
     45  -3.19071544E+003                    2.85280368E-006      72.06  <-- SCF
     46  -3.19071549E+003                    1.50111490E-006      72.86  <-- SCF
     47  -3.19071553E+003                    1.20476459E-006      73.66  <-- SCF
     48  -3.19071555E+003                    7.20716451E-007      74.46  <-- SCF
------------------------------------------------------------------------ <-- SCF
 
Final energy =  -3190.715549253     eV
(energy not corrected for finite basis set)
 
(SEDC) Total Energy Correction : -0.834647E+00 eV

Dispersion corrected final energy* =  -3191.550196147     eV

Writing analysis data to Conf_0015.castep_bin

Writing model to Conf_0015.check

WARNING - nonlinear constraints cannot be used with LBFGS algorithm
        - consider setting geom_method=DELOCALIZED
 
        => Turning nonlinear constraints OFF
 
+---------------- MEMORY AND SCRATCH DISK ESTIMATES PER PROCESS --------------+
|                                                     Memory          Disk    |
| Model and support data                              550.1 MB         0.0 MB |
| Electronic energy minimisation requirements          31.8 MB         0.0 MB |
| Geometry minimisation requirements                   34.8 MB         0.0 MB |
|                                               ----------------------------- |
| Approx. total storage required per process          616.7 MB         0.0 MB |
|                                                                             |
| Requirements will fluctuate during execution and may exceed these estimates |
+-----------------------------------------------------------------------------+
 
 
 ************************************** Forces **************************************
 *                                                                                  *
 *                           Cartesian components (eV/A)                            *
 * -------------------------------------------------------------------------------- *
 *                         x                    y                    z              *
 *                                                                                  *
 * H               1     -0.00853              0.24961             -0.11052         *
 * H               2     -0.12330             -0.00915             -0.14129         *
 * H               3      0.04718              0.04513             -0.02354         *
 * H               4      0.02612             -0.01663             -0.02775         *
 * H               5      0.01936             -0.09193              0.06780         *
 * H               6     -0.19315             -0.08346              0.03349         *
 * H               7     -0.11640              0.09062              0.00219         *
 * H               8     -0.11801              0.07351              0.22408         *
 * H               9     -0.09455              0.01656             -0.06640         *
 * H              10     -0.08034              0.12314              0.06274         *
 * H              11     -0.86134              0.44112             -0.10940         *
 * H              12      0.15765             -0.62376             -0.80822         *
 * H              13     -0.48861              0.32396             -0.83130         *
 * H              14     -0.98967             -0.04903             -0.56464         *
 * H              15     -0.11557              0.58873              0.18989         *
 * H              16      0.03295              0.11557             -0.03657         *
 * H              17     -0.03939             -0.01938             -0.12751         *
 * H              18      0.03457              0.05496             -0.17030         *
 * H              19      0.07591             -0.00006             -0.00203         *
 * H              20      0.02412             -0.02061             -0.02290         *
 * C               1     -0.41705              0.45517             -0.16306         *
 * C               2      0.00278             -0.04614              0.03473         *
 * C               3      0.07780              0.54579             -0.67182         *
 * C               4      0.18344             -0.20447              0.12246         *
 * C               5     -0.16406              0.59763             -0.13716         *
 * C               6      0.15447             -0.14937              0.12487         *
 * C               7     -0.11900              0.04747              0.06324         *
 * N               1      1.72713             -1.72883              1.28254         *
 * O               1     -0.71442              0.23984              0.93635         *
 * O               2      1.24834             -0.16363              0.52592         *
 * O               3      0.16478             -0.16142              0.94012         *
 * Si              1      0.66681             -0.64093             -0.59601         *
 *                                                                                  *
 ************************************************************************************
 EXP precond LBFGS => estimated nearest neighbor distance :  1.624       A
 EXP precond LBFGS => estimated cutoff distance :  3.247       A
 doing test perturbation to get energy scale for EXP preconditioner
 
                           -------------------------------
                                     Cell Contents
                           -------------------------------
 
            xxxxxxxxxxxxxxxxxxxxxxxxxxxxxxxxxxxxxxxxxxxxxxxxxxxxxxxxxxxxxxxxx
            x  Element         Atom        Fractional coordinates of atoms  x
            x                 Number           u          v          w      x
            x---------------------------------------------------------------x
            x  H                 1         0.605745   0.465905   0.533801   x
            x  H                 2         0.665470   0.533345   0.551937   x
            x  H                 3         0.439155   0.507769   0.551176   x
            x  H                 4         0.498435   0.574004   0.569478   x
            x  H                 5         0.644584   0.592279   0.474619   x
            x  H                 6         0.730633   0.572662   0.503177   x
            x  H                 7         0.727203   0.458385   0.491512   x
            x  H                 8         0.726253   0.499511   0.457208   x
            x  H                 9         0.552474   0.427028   0.486588   x
            x  H                10         0.614228   0.408292   0.453223   x
            x  H                11         0.379533   0.566660   0.464057   x
            x  H                12         0.415209   0.424862   0.415499   x
            x  H                13         0.501157   0.556958   0.403760   x
            x  H                14         0.515078   0.545613   0.503407   x
            x  H                15         0.569671   0.606753   0.520229   x
            x  H                16         0.528862   0.428595   0.584278   x
            x  H                17         0.588278   0.494536   0.602539   x
            x  H                18         0.441397   0.456044   0.631625   x
            x  H                19         0.362061   0.471288   0.600841   x
            x  H                20         0.422009   0.537543   0.619217   x
            x  C                 1         0.595997   0.516598   0.541525   x
            x  C                 2         0.507971   0.522591   0.562663   x
            x  C                 3         0.662835   0.555799   0.491845   x
            x  C                 4         0.680457   0.489145   0.477041   x
            x  C                 5         0.588616   0.449503   0.467120   x
            x  C                 6         0.519927   0.480458   0.590609   x
            x  C                 7         0.431570   0.486683   0.611710   x
            x  N                 1         0.578308   0.559890   0.513718   x
            x  O                 1         0.402739   0.453532   0.431641   x
            x  O                 2         0.541374   0.541171   0.419517   x
            x  O                 3         0.441641   0.548258   0.469781   x
            x  Si                1         0.491254   0.497560   0.445750   x
            xxxxxxxxxxxxxxxxxxxxxxxxxxxxxxxxxxxxxxxxxxxxxxxxxxxxxxxxxxxxxxxxx
 
 
------------------------------------------------------------------------ <-- SCF
SCF loop      Energy                           Energy gain       Timer   <-- SCF
                                               per atom          (sec)   <-- SCF
------------------------------------------------------------------------ <-- SCF
Initial  -3.19286939E+003                                         76.46  <-- SCF
      1  -3.19069942E+003                   -6.78115618E-002      77.30  <-- SCF
      2  -3.19072107E+003                    6.76575288E-004      78.49  <-- SCF
      3  -3.19069724E+003                   -7.44728767E-004      79.53  <-- SCF
      4  -3.19071296E+003                    4.91392556E-004      80.54  <-- SCF
      5  -3.19071315E+003                    5.81415681E-006      81.34  <-- SCF
      6  -3.19071337E+003                    6.82227715E-006      82.12  <-- SCF
      7  -3.19071343E+003                    2.03296682E-006      82.89  <-- SCF
      8  -3.19071349E+003                    1.74010383E-006      83.66  <-- SCF
      9  -3.19071352E+003                    8.74926451E-007      84.43  <-- SCF
     10  -3.19071355E+003                    1.14360328E-006      85.20  <-- SCF
     11  -3.19071357E+003                    4.17199237E-007      85.97  <-- SCF
------------------------------------------------------------------------ <-- SCF
 
Final energy =  -3190.713565255     eV
(energy not corrected for finite basis set)
 
(SEDC) Total Energy Correction : -0.835678E+00 eV

Dispersion corrected final energy* =  -3191.549243038     eV
 
 ************************************** Forces **************************************
 *                                                                                  *
 *                           Cartesian components (eV/A)                            *
 * -------------------------------------------------------------------------------- *
 *                         x                    y                    z              *
 *                                                                                  *
 * H               1      0.02513              0.14705             -0.14252         *
 * H               2     -0.09432             -0.00006             -0.13246         *
 * H               3      0.05026              0.03021             -0.02903         *
 * H               4      0.01591              0.09498             -0.00283         *
 * H               5      0.00363             -0.02656              0.02212         *
 * H               6     -0.15633             -0.06469              0.05229         *
 * H               7     -0.08569              0.03770              0.02148         *
 * H               8     -0.09679              0.07677              0.20272         *
 * H               9     -0.11019             -0.01078             -0.03704         *
 * H              10     -0.06894              0.10338              0.04396         *
 * H              11     -0.85108              0.42876             -0.09546         *
 * H              12      0.14622             -0.65336             -0.84562         *
 * H              13     -0.50550              0.33402             -0.85676         *
 * H              14     -0.99633             -0.06687             -0.57846         *
 * H              15     -0.12391              0.75027              0.23786         *
 * H              16      0.04004              0.01976             -0.05017         *
 * H              17     -0.03802             -0.01345             -0.11004         *
 * H              18      0.03431              0.03496             -0.12016         *
 * H              19      0.09954             -0.00544             -0.00904         *
 * H              20      0.01778              0.08002             -0.00097         *
 * C               1     -0.44408              0.48151             -0.15106         *
 * C               2      0.00398             -0.10252             -0.02093         *
 * C               3      0.06599              0.57063             -0.64241         *
 * C               4      0.17869             -0.24501              0.09830         *
 * C               5     -0.17752              0.59087             -0.13983         *
 * C               6      0.13078             -0.13696              0.16225         *
 * C               7     -0.12187             -0.01265             -0.00148         *
 * N               1      1.71349             -1.75418              1.28358         *
 * O               1     -0.72028              0.24200              0.95555         *
 * O               2      1.26865             -0.13827              0.50426         *
 * O               3      0.11318             -0.10114              0.96994         *
 * Si              1      0.68326             -0.69094             -0.58804         *
 *                                                                                  *
 ************************************************************************************
 EXP precond LBFGS => estimated parameter mu :  1.757       eV/A**2
 LBFGS: finished iteration     0 with enthalpy= -3.19155020E+003 eV
  
 +-----------+-----------------+-----------------+------------+-----+ <-- LBFGS
 | Parameter |      value      |    tolerance    |    units   | OK? | <-- LBFGS
 +-----------+-----------------+-----------------+------------+-----+ <-- LBFGS
 |  dE/ion   |   0.000000E+000 |   2.000000E-005 |         eV | No  | <-- LBFGS
 |  |F|max   |   2.767813E+000 |   5.000000E-002 |       eV/A | No  | <-- LBFGS
 |  |dR|max  |   7.667620E-015 |   2.000000E-003 |          A | No  | <-- LBFGS
 +-----------+-----------------+-----------------+------------+-----+ <-- LBFGS
  

================================================================================
 Starting LBFGS iteration          1 ...
================================================================================
  
 +------------+-------------+-------------+-----------------+ <-- min LBFGS
 |    Step    |   lambda    |   F.delta'  |    enthalpy     | <-- min LBFGS
 +------------+-------------+-------------+-----------------+ <-- min LBFGS
 |  previous  |    0.000000 |    1.908195 |    -3191.550196 | <-- min LBFGS
 +------------+-------------+-------------+-----------------+ <-- min LBFGS
  

--------------------------------------------------------------------------------
 LBFGS: starting iteration         1 with trial guess (lambda=  1.000000)
--------------------------------------------------------------------------------
 
                           -------------------------------
                                     Cell Contents
                           -------------------------------
 
            xxxxxxxxxxxxxxxxxxxxxxxxxxxxxxxxxxxxxxxxxxxxxxxxxxxxxxxxxxxxxxxxx
            x  Element         Atom        Fractional coordinates of atoms  x
            x                 Number           u          v          w      x
            x---------------------------------------------------------------x
            x  H                 1         0.603679   0.467625   0.533468   x
            x  H                 2         0.662826   0.534137   0.551571   x
            x  H                 3         0.438809   0.508349   0.550892   x
            x  H                 4         0.497960   0.574557   0.569223   x
            x  H                 5         0.643907   0.592153   0.474800   x
            x  H                 6         0.728394   0.572753   0.503263   x
            x  H                 7         0.724438   0.459528   0.491663   x
            x  H                 8         0.723693   0.500594   0.457794   x
            x  H                 9         0.548897   0.428380   0.486216   x
            x  H                10         0.610635   0.410253   0.453053   x
            x  H                11         0.366565   0.567473   0.465543   x
            x  H                12         0.410824   0.414167   0.412996   x
            x  H                13         0.507701   0.555770   0.399894   x
            x  H                14         0.509817   0.543833   0.503495   x
            x  H                15         0.569533   0.607462   0.521438   x
            x  H                16         0.529011   0.429503   0.583709   x
            x  H                17         0.587890   0.494969   0.601802   x
            x  H                18         0.441708   0.456966   0.630611   x
            x  H                19         0.362755   0.471971   0.600184   x
            x  H                20         0.422227   0.538328   0.618538   x
            x  C                 1         0.593065   0.518123   0.541311   x
            x  C                 2         0.507271   0.523035   0.562442   x
            x  C                 3         0.662053   0.556967   0.491387   x
            x  C                 4         0.678929   0.489582   0.477294   x
            x  C                 5         0.585343   0.452036   0.466727   x
            x  C                 6         0.520293   0.480703   0.590205   x
            x  C                 7         0.431385   0.487501   0.611088   x
            x  N                 1         0.582476   0.555695   0.515456   x
            x  O                 1         0.394883   0.446603   0.431905   x
            x  O                 2         0.555598   0.538062   0.417995   x
            x  O                 3         0.435636   0.546584   0.472279   x
            x  Si                1         0.495075   0.491751   0.444219   x
            xxxxxxxxxxxxxxxxxxxxxxxxxxxxxxxxxxxxxxxxxxxxxxxxxxxxxxxxxxxxxxxxx
 
 
------------------------------------------------------------------------ <-- SCF
SCF loop      Energy                           Energy gain       Timer   <-- SCF
                                               per atom          (sec)   <-- SCF
------------------------------------------------------------------------ <-- SCF
Initial  -3.20187325E+003                                         87.32  <-- SCF
      1  -3.18737582E+003                   -4.53044798E-001      88.15  <-- SCF
      2  -3.18958403E+003                    6.90066668E-002      89.40  <-- SCF
      3  -3.18900397E+003                   -1.81267945E-002      90.53  <-- SCF
      4  -3.18908862E+003                    2.64510281E-003      91.68  <-- SCF
      5  -3.18913466E+003                    1.43868889E-003      92.71  <-- SCF
      6  -3.18913600E+003                    4.20118558E-005      93.86  <-- SCF
      7  -3.18913588E+003                   -3.68334476E-006      94.81  <-- SCF
      8  -3.18913595E+003                    2.23923137E-006      95.64  <-- SCF
      9  -3.18913592E+003                   -1.14935573E-006      96.56  <-- SCF
     10  -3.18913588E+003                   -1.00042603E-006      97.44  <-- SCF
     11  -3.18913615E+003                    8.22915021E-006      98.22  <-- SCF
     12  -3.18913662E+003                    1.48823245E-005      99.07  <-- SCF
     13  -3.18913690E+003                    8.69275072E-006      99.86  <-- SCF
     14  -3.18913744E+003                    1.67047355E-005     100.64  <-- SCF
     15  -3.18913768E+003                    7.74472456E-006     101.41  <-- SCF
     16  -3.18913803E+003                    1.07927362E-005     102.20  <-- SCF
     17  -3.18913832E+003                    8.94149544E-006     102.98  <-- SCF
     18  -3.18913844E+003                    3.89671612E-006     103.76  <-- SCF
     19  -3.18913873E+003                    9.10889442E-006     104.55  <-- SCF
     20  -3.18913891E+003                    5.40182299E-006     105.34  <-- SCF
     21  -3.18913907E+003                    5.26682497E-006     106.13  <-- SCF
     22  -3.18913912E+003                    1.50867618E-006     106.94  <-- SCF
     23  -3.18913923E+003                    3.42029022E-006     107.75  <-- SCF
     24  -3.18913927E+003                    1.28002318E-006     108.55  <-- SCF
     25  -3.18913929E+003                    5.69913541E-007     109.34  <-- SCF
------------------------------------------------------------------------ <-- SCF
 
Final energy =  -3189.139290593     eV
(energy not corrected for finite basis set)
 
(SEDC) Total Energy Correction : -0.831778E+00 eV

Dispersion corrected final energy* =  -3189.971068222     eV
 
 ************************************** Forces **************************************
 *                                                                                  *
 *                           Cartesian components (eV/A)                            *
 * -------------------------------------------------------------------------------- *
 *                         x                    y                    z              *
 *                                                                                  *
 * H               1      0.03722             -0.23052              0.27346         *
 * H               2      0.09964             -0.20093              0.35444         *
 * H               3     -0.10266              0.01842             -0.02334         *
 * H               4     -0.05761              0.07398              0.03901         *
 * H               5     -0.67032              0.85007             -0.56679         *
 * H               6      0.37927              0.09526             -0.07894         *
 * H               7      0.11907             -0.41766              0.34355         *
 * H               8      0.28637             -0.02549             -0.27799         *
 * H               9     -0.03805              0.21209             -0.39184         *
 * H              10      0.11152             -0.02553              0.12170         *
 * H              11      2.96260             -1.43007              0.97250         *
 * H              12     -0.72387              2.45587              3.09694         *
 * H              13      2.38736             -1.36242              2.99332         *
 * H              14      1.58822              0.58894              0.64034         *
 * H              15      0.34797             -2.15617             -0.45055         *
 * H              16      0.05085             -0.33687             -0.10590         *
 * H              17      0.30912              0.08058              0.13576         *
 * H              18     -0.00103             -0.16470              0.33962         *
 * H              19     -0.14240             -0.02978             -0.09399         *
 * H              20     -0.01043              0.11496              0.03948         *
 * C               1      1.46666             -1.72315              1.37103         *
 * C               2     -0.34671              0.12825              0.15088         *
 * C               3      0.29137             -1.45742              1.46346         *
 * C               4     -0.42556              0.56183             -0.42613         *
 * C               5      1.31460             -1.25767              1.28352         *
 * C               6     -0.39217              0.23737             -0.05739         *
 * C               7      0.17617              0.08996             -0.19563         *
 * N               1     -3.35597              4.01176             -3.43739         *
 * O               1      2.48823             -1.28419             -2.41882         *
 * O               2     -3.29061              0.14932             -1.68896         *
 * O               3     -1.64532             -0.25630             -2.53018         *
 * Si              1     -3.21354              2.69020             -0.87517         *
 *                                                                                  *
 ************************************************************************************
  
 +------------+-------------+-------------+-----------------+ <-- min LBFGS
 |    Step    |   lambda    |   F.delta'  |    enthalpy     | <-- min LBFGS
 +------------+-------------+-------------+-----------------+ <-- min LBFGS
 |  previous  |    0.000000 |    1.908195 |    -3191.550196 | <-- min LBFGS
 | trial step |    1.000000 |   -5.050058 |    -3189.971068 | <-- min LBFGS
 +------------+-------------+-------------+-----------------+ <-- min LBFGS
  

--------------------------------------------------------------------------------
 LBFGS: improving iteration         1 with line minimization (lambda=  0.274235)
--------------------------------------------------------------------------------
 
                           -------------------------------
                                     Cell Contents
                           -------------------------------
 
            xxxxxxxxxxxxxxxxxxxxxxxxxxxxxxxxxxxxxxxxxxxxxxxxxxxxxxxxxxxxxxxxx
            x  Element         Atom        Fractional coordinates of atoms  x
            x                 Number           u          v          w      x
            x---------------------------------------------------------------x
            x  H                 1         0.604307   0.465960   0.533521   x
            x  H                 2         0.663894   0.533303   0.551663   x
            x  H                 3         0.438249   0.507605   0.550924   x
            x  H                 4         0.497452   0.574008   0.569251   x
            x  H                 5         0.643538   0.592148   0.474440   x
            x  H                 6         0.729218   0.572535   0.502989   x
            x  H                 7         0.725639   0.458267   0.491335   x
            x  H                 8         0.724745   0.499465   0.457131   x
            x  H                 9         0.550622   0.426912   0.486264   x
            x  H                10         0.612373   0.408317   0.452937   x
            x  H                11         0.375228   0.566714   0.464230   x
            x  H                12         0.413218   0.421440   0.414559   x
            x  H                13         0.502098   0.556437   0.402443   x
            x  H                14         0.512775   0.544899   0.503220   x
            x  H                15         0.568759   0.606893   0.520362   x
            x  H                16         0.528037   0.428360   0.583978   x
            x  H                17         0.587298   0.494301   0.602211   x
            x  H                18         0.440670   0.455862   0.631252   x
            x  H                19         0.361526   0.471070   0.600533   x
            x  H                20         0.421274   0.537511   0.618922   x
            x  C                 1         0.594320   0.516715   0.541285   x
            x  C                 2         0.506922   0.522426   0.562438   x
            x  C                 3         0.661768   0.555921   0.491501   x
            x  C                 4         0.679197   0.488898   0.476883   x
            x  C                 5         0.586845   0.449750   0.466779   x
            x  C                 6         0.519165   0.480139   0.590361   x
            x  C                 7         0.430715   0.486535   0.611423   x
            x  N                 1         0.578577   0.558552   0.513991   x
            x  O                 1         0.399809   0.451191   0.431465   x
            x  O                 2         0.544406   0.540080   0.418847   x
            x  O                 3         0.439181   0.547579   0.470235   x
            x  Si                1         0.491453   0.495620   0.445087   x
            xxxxxxxxxxxxxxxxxxxxxxxxxxxxxxxxxxxxxxxxxxxxxxxxxxxxxxxxxxxxxxxxx
 
 
------------------------------------------------------------------------ <-- SCF
SCF loop      Energy                           Energy gain       Timer   <-- SCF
                                               per atom          (sec)   <-- SCF
------------------------------------------------------------------------ <-- SCF
Initial  -3.21031895E+003                                        110.70  <-- SCF
      1  -3.19015693E+003                   -6.30063194E-001     111.50  <-- SCF
      2  -3.19108678E+003                    2.90580118E-002     112.60  <-- SCF
      3  -3.19075599E+003                   -1.03374602E-002     113.61  <-- SCF
      4  -3.19084197E+003                    2.68702649E-003     114.70  <-- SCF
      5  -3.19087295E+003                    9.68252231E-004     115.74  <-- SCF
      6  -3.19087352E+003                    1.75935932E-005     116.81  <-- SCF
      7  -3.19087331E+003                   -6.36191918E-006     117.74  <-- SCF
      8  -3.19087322E+003                   -2.87811581E-006     118.52  <-- SCF
      9  -3.19087313E+003                   -2.85593148E-006     119.42  <-- SCF
     10  -3.19087335E+003                    7.01320422E-006     120.19  <-- SCF
     11  -3.19087361E+003                    7.99976731E-006     120.97  <-- SCF
     12  -3.19087419E+003                    1.80788844E-005     121.79  <-- SCF
     13  -3.19087436E+003                    5.30983859E-006     122.58  <-- SCF
     14  -3.19087476E+003                    1.26424983E-005     123.35  <-- SCF
     15  -3.19087497E+003                    6.45900591E-006     124.13  <-- SCF
     16  -3.19087534E+003                    1.16767192E-005     124.91  <-- SCF
     17  -3.19087548E+003                    4.29315915E-006     125.69  <-- SCF
     18  -3.19087579E+003                    9.69384772E-006     126.47  <-- SCF
     19  -3.19087596E+003                    5.34927376E-006     127.26  <-- SCF
     20  -3.19087623E+003                    8.29758978E-006     128.04  <-- SCF
     21  -3.19087634E+003                    3.37195057E-006     128.84  <-- SCF
     22  -3.19087652E+003                    5.78417599E-006     129.63  <-- SCF
     23  -3.19087657E+003                    1.62820898E-006     130.42  <-- SCF
     24  -3.19087668E+003                    3.25732873E-006     131.22  <-- SCF
     25  -3.19087672E+003                    1.20510604E-006     132.01  <-- SCF
     26  -3.19087676E+003                    1.31731407E-006     132.80  <-- SCF
     27  -3.19087678E+003                    6.46564535E-007     133.60  <-- SCF
------------------------------------------------------------------------ <-- SCF
 
Final energy =  -3190.876778663     eV
(energy not corrected for finite basis set)
 
(SEDC) Total Energy Correction : -0.833428E+00 eV

Dispersion corrected final energy* =  -3191.710206774     eV
 
 ************************************** Forces **************************************
 *                                                                                  *
 *                           Cartesian components (eV/A)                            *
 * -------------------------------------------------------------------------------- *
 *                         x                    y                    z              *
 *                                                                                  *
 * H               1      0.00593              0.14554             -0.01567         *
 * H               2     -0.06756             -0.05793             -0.02512         *
 * H               3      0.00953              0.03745             -0.02541         *
 * H               4      0.00507              0.00693             -0.01130         *
 * H               5     -0.15607              0.14201             -0.08599         *
 * H               6     -0.03139             -0.03553             -0.00069         *
 * H               7     -0.05429             -0.04184              0.08476         *
 * H               8     -0.00620              0.04614              0.09131         *
 * H               9     -0.07326              0.07328             -0.16155         *
 * H              10     -0.02685              0.11024              0.07685         *
 * H              11      0.54538             -0.24464              0.24798         *
 * H              12     -0.17492              0.59473              0.69604         *
 * H              13      0.59740             -0.34641              0.69606         *
 * H              14      0.01159              0.25146             -0.08232         *
 * H              15      0.02620             -0.34681             -0.05287         *
 * H              16      0.04135             -0.00203             -0.05702         *
 * H              17      0.05720              0.00743             -0.06029         *
 * H              18      0.02618             -0.00680             -0.04193         *
 * H              19      0.02203             -0.01226             -0.03075         *
 * H              20      0.01903              0.01962             -0.00870         *
 * C               1      0.05954              0.02441              0.00423         *
 * C               2     -0.08335              0.00325              0.05752         *
 * C               3      0.12381              0.03237             -0.12715         *
 * C               4      0.02764              0.00512             -0.02354         *
 * C               5      0.17795              0.11437              0.16287         *
 * C               6      0.00796             -0.04188              0.07081         *
 * C               7     -0.03300              0.05601             -0.00902         *
 * N               1      0.02341             -0.33811              0.30919         *
 * O               1      0.32455             -0.45533             -0.37979         *
 * O               2     -0.38052              0.06764             -0.44236         *
 * O               3     -0.42231             -0.35821             -0.47126         *
 * Si              1     -0.60203              0.54976             -0.38490         *
 *                                                                                  *
 ************************************************************************************
  
 +------------+-------------+-------------+-----------------+ <-- min LBFGS
 |    Step    |   lambda    |   F.delta'  |    enthalpy     | <-- min LBFGS
 +------------+-------------+-------------+-----------------+ <-- min LBFGS
 |  previous  |    0.000000 |    1.908195 |    -3191.550196 | <-- min LBFGS
 | trial step |    1.000000 |   -5.050058 |    -3189.971068 | <-- min LBFGS
 |  line step |    0.274235 |   -0.438110 |    -3191.710207 | <-- min LBFGS
 +------------+-------------+-------------+-----------------+ <-- min LBFGS
  
 LBFGS: finished iteration     1 with enthalpy= -3.19171021E+003 eV
  
 +-----------+-----------------+-----------------+------------+-----+ <-- LBFGS
 | Parameter |      value      |    tolerance    |    units   | OK? | <-- LBFGS
 +-----------+-----------------+-----------------+------------+-----+ <-- LBFGS
 |  dE/ion   |   5.000332E-003 |   2.000000E-005 |         eV | No  | <-- LBFGS
 |  |F|max   |   9.805007E-001 |   5.000000E-002 |       eV/A | No  | <-- LBFGS
 |  |dR|max  |   6.323286E-002 |   2.000000E-003 |          A | No  | <-- LBFGS
 +-----------+-----------------+-----------------+------------+-----+ <-- LBFGS
  

================================================================================
 Starting LBFGS iteration          2 ...
================================================================================
  
 +------------+-------------+-------------+-----------------+ <-- min LBFGS
 |    Step    |   lambda    |   F.delta'  |    enthalpy     | <-- min LBFGS
 +------------+-------------+-------------+-----------------+ <-- min LBFGS
 |  previous  |    0.000000 |    0.783950 |    -3191.710207 | <-- min LBFGS
 +------------+-------------+-------------+-----------------+ <-- min LBFGS
  

--------------------------------------------------------------------------------
 LBFGS: starting iteration         2 with trial guess (lambda=  1.000000)
--------------------------------------------------------------------------------
 
                           -------------------------------
                                     Cell Contents
                           -------------------------------
 
            xxxxxxxxxxxxxxxxxxxxxxxxxxxxxxxxxxxxxxxxxxxxxxxxxxxxxxxxxxxxxxxxx
            x  Element         Atom        Fractional coordinates of atoms  x
            x                 Number           u          v          w      x
            x---------------------------------------------------------------x
            x  H                 1         0.603917   0.467020   0.533277   x
            x  H                 2         0.662958   0.533099   0.551366   x
            x  H                 3         0.438679   0.507851   0.550566   x
            x  H                 4         0.497832   0.574004   0.568919   x
            x  H                 5         0.642217   0.592585   0.474290   x
            x  H                 6         0.728065   0.572436   0.502941   x
            x  H                 7         0.724083   0.459408   0.491702   x
            x  H                 8         0.723455   0.500919   0.457683   x
            x  H                 9         0.548699   0.429190   0.486065   x
            x  H                10         0.610690   0.411228   0.453325   x
            x  H                11         0.374328   0.563225   0.464804   x
            x  H                12         0.411060   0.422625   0.416562   x
            x  H                13         0.509657   0.553647   0.403647   x
            x  H                14         0.511019   0.544055   0.503059   x
            x  H                15         0.568937   0.605104   0.520661   x
            x  H                16         0.529367   0.428750   0.583330   x
            x  H                17         0.588534   0.494488   0.601492   x
            x  H                18         0.442087   0.456394   0.630342   x
            x  H                19         0.362959   0.471478   0.599794   x
            x  H                20         0.422563   0.537999   0.618204   x
            x  C                 1         0.593763   0.517042   0.541089   x
            x  C                 2         0.507034   0.522482   0.562172   x
            x  C                 3         0.661503   0.556429   0.491189   x
            x  C                 4         0.678386   0.489966   0.477149   x
            x  C                 5         0.585769   0.452481   0.466995   x
            x  C                 6         0.520384   0.480202   0.589891   x
            x  C                 7         0.431736   0.487096   0.610723   x
            x  N                 1         0.580171   0.555823   0.514728   x
            x  O                 1         0.398360   0.450211   0.432684   x
            x  O                 2         0.549561   0.538300   0.419102   x
            x  O                 3         0.436188   0.543849   0.470337   x
            x  Si                1         0.489318   0.496027   0.444372   x
            xxxxxxxxxxxxxxxxxxxxxxxxxxxxxxxxxxxxxxxxxxxxxxxxxxxxxxxxxxxxxxxxx
 
 
------------------------------------------------------------------------ <-- SCF
SCF loop      Energy                           Energy gain       Timer   <-- SCF
                                               per atom          (sec)   <-- SCF
------------------------------------------------------------------------ <-- SCF
Initial  -3.20544953E+003                                        134.96  <-- SCF
      1  -3.19049783E+003                   -4.67240836E-001     135.76  <-- SCF
      2  -3.19076154E+003                    8.24093203E-003     136.93  <-- SCF
      3  -3.19063997E+003                   -3.79906165E-003     137.96  <-- SCF
      4  -3.19070344E+003                    1.98368663E-003     138.98  <-- SCF
      5  -3.19070903E+003                    1.74654022E-004     140.17  <-- SCF
      6  -3.19070938E+003                    1.09198790E-005     141.08  <-- SCF
      7  -3.19070929E+003                   -2.82270130E-006     141.88  <-- SCF
      8  -3.19070906E+003                   -7.33141583E-006     142.74  <-- SCF
      9  -3.19070902E+003                   -1.27283830E-006     143.51  <-- SCF
     10  -3.19070909E+003                    2.28974681E-006     144.28  <-- SCF
     11  -3.19070933E+003                    7.61131997E-006     145.06  <-- SCF
     12  -3.19070954E+003                    6.34568119E-006     145.83  <-- SCF
     13  -3.19070977E+003                    7.42891777E-006     146.61  <-- SCF
     14  -3.19070999E+003                    6.83726509E-006     147.39  <-- SCF
     15  -3.19071017E+003                    5.67578283E-006     148.17  <-- SCF
     16  -3.19071034E+003                    5.31489601E-006     148.95  <-- SCF
     17  -3.19071054E+003                    5.99804813E-006     149.73  <-- SCF
     18  -3.19071063E+003                    2.99957436E-006     150.51  <-- SCF
     19  -3.19071076E+003                    3.92248653E-006     151.29  <-- SCF
     20  -3.19071081E+003                    1.59530546E-006     152.12  <-- SCF
     21  -3.19071088E+003                    2.36305587E-006     152.91  <-- SCF
[...]
 * H              19     -0.00085             -0.00244              0.00238         *
 * H              20     -0.00030              0.00301              0.00214         *
 * C               1     -0.00289              0.01197              0.00424         *
 * C               2     -0.00429             -0.00903              0.00582         *
 * C               3      0.01013              0.01270              0.01346         *
 * C               4      0.00345             -0.00878              0.01600         *
 * C               5      0.00703             -0.00611             -0.00659         *
 * C               6      0.00224              0.00483              0.00672         *
 * C               7     -0.00350             -0.00517              0.00217         *
 * N               1      0.00515             -0.00306             -0.00339         *
 * O               1      0.00076              0.00640              0.00260         *
 * O               2     -0.00002             -0.00663             -0.00213         *
 * O               3      0.01711             -0.00202              0.00238         *
 * Si              1     -0.00397              0.00308              0.00301         *
 *                                                                                  *
 ************************************************************************************
 
 Pseudo atomic calculation performed for H 1s1
 
 Converged in 13 iterations to a total energy of -12.4790 eV
 
 Pseudo atomic calculation performed for C 2s2 2p2
 
 Converged in 17 iterations to a total energy of -148.5208 eV
 
 Pseudo atomic calculation performed for N 2s2 2p3
 
 Converged in 21 iterations to a total energy of -268.1820 eV
 
 Pseudo atomic calculation performed for O 2s2 2p4
 
 Converged in 23 iterations to a total energy of -432.6536 eV
 
 Pseudo atomic calculation performed for Si 3s2 3p2
 
 Converged in 11 iterations to a total energy of -165.0683 eV
Charge spilling parameter for spin component 1 = 1.52%
 
            Orbital Populations       
     Ion    Atom   Orbital             Charge
  -------------------------------------------
      H     1      S                    0.708
      H     2      S                    0.695
      H     3      S                    0.735
      H     4      S                    0.737
      H     5      S                    0.689
      H     6      S                    0.685
      H     7      S                    0.717
      H     8      S                    0.679
      H     9      S                    0.743
      H    10      S                    0.688
      H    11      S                    0.456
      H    12      S                    0.451
      H    13      S                    0.455
      H    14      S                    0.557
      H    15      S                    0.512
      H    16      S                    0.730
      H    17      S                    0.725
      H    18      S                    0.699
      H    19      S                    0.736
      H    20      S                    0.728
      C     1      S                    1.288
      C     1      Px                   1.145
      C     1      Py                   1.077
      C     1      Pz                   0.880
      C     2      S                    1.295
      C     2      Px                   1.052
      C     2      Py                   1.151
      C     2      Pz                   1.018
      C     3      S                    1.302
      C     3      Px                   1.000
      C     3      Py                   1.113
      C     3      Pz                   1.006
      C     4      S                    1.303
      C     4      Px                   1.090
      C     4      Py                   0.973
      C     4      Pz                   1.171
      C     5      S                    1.403
      C     5      Px                   1.135
      C     5      Py                   1.214
      C     5      Pz                   1.220
      C     6      S                    1.304
      C     6      Px                   1.108
      C     6      Py                   1.114
      C     6      Pz                   0.985
      C     7      S                    1.399
      C     7      Px                   1.057
      C     7      Py                   1.209
      C     7      Pz                   1.129
      N     1      S                    1.574
      N     1      Px                   1.370
      N     1      Py                   1.379
      N     1      Pz                   1.280
      O     1      S                    1.852
      O     1      Px                   1.822
      O     1      Py                   1.767
      O     1      Pz                   1.650
      O     2      S                    1.853
      O     2      Px                   1.834
      O     2      Py                   1.778
      O     2      Pz                   1.629
      O     3      S                    1.848
      O     3      Px                   1.585
      O     3      Py                   1.851
      O     3      Pz                   1.812
     Si     1      S                    0.733
     Si     1      Px                   0.369
     Si     1      Py                   0.384
     Si     1      Pz                   0.363
  -------------------------------------------
                           Total:      74.000
  -------------------------------------------
 
     Atomic Populations (Mulliken)
     -----------------------------
Species          Ion     s       p       d       f      Total   Charge (e)
==========================================================================
  H               1     0.708   0.000   0.000   0.000   0.708     0.292
  H               2     0.695   0.000   0.000   0.000   0.695     0.305
  H               3     0.735   0.000   0.000   0.000   0.735     0.265
  H               4     0.737   0.000   0.000   0.000   0.737     0.263
  H               5     0.689   0.000   0.000   0.000   0.689     0.311
  H               6     0.685   0.000   0.000   0.000   0.685     0.315
  H               7     0.717   0.000   0.000   0.000   0.717     0.283
  H               8     0.679   0.000   0.000   0.000   0.679     0.321
  H               9     0.743   0.000   0.000   0.000   0.743     0.257
  H              10     0.688   0.000   0.000   0.000   0.688     0.312
  H              11     0.456   0.000   0.000   0.000   0.456     0.544
  H              12     0.451   0.000   0.000   0.000   0.451     0.549
  H              13     0.455   0.000   0.000   0.000   0.455     0.545
  H              14     0.557   0.000   0.000   0.000   0.557     0.443
  H              15     0.512   0.000   0.000   0.000   0.512     0.488
  H              16     0.730   0.000   0.000   0.000   0.730     0.270
  H              17     0.725   0.000   0.000   0.000   0.725     0.275
  H              18     0.699   0.000   0.000   0.000   0.699     0.301
  H              19     0.736   0.000   0.000   0.000   0.736     0.264
  H              20     0.728   0.000   0.000   0.000   0.728     0.272
  C               1     1.288   3.102   0.000   0.000   4.390    -0.390
  C               2     1.295   3.220   0.000   0.000   4.515    -0.515
  C               3     1.302   3.120   0.000   0.000   4.422    -0.422
  C               4     1.303   3.234   0.000   0.000   4.537    -0.537
  C               5     1.403   3.569   0.000   0.000   4.972    -0.972
  C               6     1.304   3.207   0.000   0.000   4.511    -0.511
  C               7     1.399   3.394   0.000   0.000   4.793    -0.793
  N               1     1.574   4.029   0.000   0.000   5.603    -0.603
  O               1     1.852   5.239   0.000   0.000   7.091    -1.091
  O               2     1.853   5.242   0.000   0.000   7.095    -1.095
  O               3     1.848   5.248   0.000   0.000   7.096    -1.096
  Si              1     0.733   1.116   0.000   0.000   1.849     2.151
==========================================================================
 
                 Bond                   Population      Length (A)
======================================================================
              H 12 -- O 1                    0.53        0.96909
              H 13 -- O 2                    0.53        0.96948
              H 11 -- O 3                    0.52        0.97055
              H 15 -- N 1                    0.68        1.02816
              H 14 -- N 1                    0.65        1.04994
              H 18 -- C 7                    0.81        1.09692
              H 1  -- C 1                    0.87        1.09751
              H 6  -- C 3                    0.85        1.09807
              H 20 -- C 7                    0.81        1.09908
              H 2  -- C 1                    0.85        1.09946
              H 19 -- C 7                    0.81        1.09961
              H 5  -- C 3                    0.85        1.09972
              H 8  -- C 4                    0.84        1.09978
              H 7  -- C 4                    0.85        1.10090
              H 10 -- C 5                    0.82        1.10101
              H 16 -- C 6                    0.84        1.10153
              H 17 -- C 6                    0.84        1.10159
              H 3  -- C 2                    0.85        1.10286
              H 9  -- C 5                    0.83        1.10364
              H 4  -- C 2                    0.85        1.10397
               C 1 -- N 1                    0.52        1.49944
               C 3 -- N 1                    0.51        1.51249
               C 1 -- C 2                    0.71        1.51886
               C 3 -- C 4                    0.70        1.52604
               C 6 -- C 7                    0.65        1.52636
               C 2 -- C 6                    0.69        1.52928
               C 4 -- C 5                    0.64        1.54346
               O 1 -- Si 1                   0.53        1.63736
               O 2 -- Si 1                   0.51        1.63916
              H 14 -- H 15                  -0.11        1.64782
               O 3 -- Si 1                   0.43        1.68083
              H 9  -- H 10                  -0.10        1.74980
              H 7  -- H 8                   -0.11        1.76040
              H 16 -- H 17                  -0.12        1.76948
              H 18 -- H 20                  -0.10        1.77361
              H 3  -- H 4                   -0.12        1.77578
              H 18 -- H 19                  -0.10        1.77626
              H 19 -- H 20                  -0.11        1.77936
              H 1  -- H 2                   -0.11        1.78655
              H 5  -- H 6                   -0.11        1.78800
              H 14 -- O 3                    0.09        1.79633
               C 5 -- Si 1                   0.63        1.87217
              H 15 -- C 1                   -0.13        2.06101
              H 14 -- C 3                   -0.12        2.07464
              H 15 -- C 3                   -0.14        2.07668
              H 5  -- N 1                   -0.12        2.09455
              H 8  -- C 3                   -0.13        2.10275
              H 2  -- N 1                   -0.11        2.10276
              H 1  -- N 1                   -0.11        2.10723
              H 6  -- N 1                   -0.11        2.11045
              H 14 -- C 1                   -0.11        2.12618
              H 10 -- C 4                   -0.12        2.15286
              H 16 -- C 2                   -0.14        2.15435
              H 3  -- C 1                   -0.14        2.15499
              H 17 -- C 2                   -0.13        2.15640
              H 4  -- C 6                   -0.12        2.15997
              H 4  -- C 1                   -0.14        2.16012
              H 3  -- C 6                   -0.12        2.16314
              H 7  -- C 3                   -0.14        2.16402
              H 17 -- C 7                   -0.13        2.16697
              H 16 -- C 7                   -0.13        2.16907
              H 8  -- C 5                   -0.12        2.16984
              H 7  -- C 5                   -0.14        2.17404
              H 19 -- C 6                   -0.12        2.17480
              H 5  -- C 4                   -0.12        2.17563
              H 20 -- C 6                   -0.12        2.17635
              H 1  -- C 2                   -0.12        2.17687
              H 2  -- C 2                   -0.12        2.17790
              H 6  -- C 4                   -0.13        2.17797
              H 18 -- C 6                   -0.11        2.17897
              H 9  -- C 4                   -0.11        2.19223
              H 12 -- Si 1                  -0.12        2.29731
              H 11 -- Si 1                  -0.12        2.30114
              H 13 -- Si 1                  -0.13        2.30268
              H 5  -- H 14                  -0.03        2.31274
              H 5  -- H 15                  -0.03        2.34429
              H 1  -- H 9                   -0.03        2.35746
              H 6  -- H 15                  -0.03        2.36520
              H 5  -- H 8                   -0.04        2.39426
              H 8  -- H 10                  -0.05        2.39686
              H 1  -- H 7                   -0.03        2.40121
              H 2  -- H 15                  -0.03        2.41062
              H 4  -- H 15                  -0.01        2.41657
              H 9  -- Si 1                  -0.14        2.43020
              H 6  -- H 7                   -0.04        2.43060
              H 7  -- H 9                   -0.05        2.44106
              H 1  -- H 14                  -0.03        2.44982
              H 10 -- Si 1                  -0.12        2.45173
               C 2 -- N 1                   -0.14        2.47544
              H 4  -- H 17                  -0.04        2.49387
              H 6  -- H 8                   -0.02        2.50393
              H 3  -- H 14                  -0.01        2.50660
              H 3  -- H 16                  -0.03        2.51335
              H 17 -- H 18                  -0.03        2.51346
              H 2  -- H 4                   -0.03        2.51469
              H 16 -- H 18                  -0.03        2.51642
               C 1 -- C 6                   -0.15        2.52004
              H 1  -- H 3                   -0.03        2.52038
              H 17 -- H 20                  -0.03        2.52469
              H 16 -- H 19                  -0.03        2.52565
               C 2 -- C 7                   -0.16        2.52890
              H 7  -- H 10                  -0.02        2.53217
               C 4 -- N 1                   -0.12        2.53875
              H 1  -- H 16                  -0.01        2.54092
              H 11 -- H 14                  -0.01        2.54242
              H 3  -- H 19                  -0.01        2.55109
              H 2  -- H 6                   -0.01        2.55339
               C 1 -- C 3                   -0.13        2.56500
              H 9  -- H 14                  -0.01        2.56707
              H 4  -- H 20                  -0.01        2.57154
              H 2  -- H 17                  -0.01        2.58235
               C 3 -- C 5                   -0.14        2.60705
               O 1 -- O 3                   -0.08        2.61480
              H 15 -- C 2                   -0.04        2.61613
              H 3  -- N 1                   -0.03        2.70206
              H 11 -- O 1                   -0.01        2.70267
              H 4  -- N 1                   -0.03        2.71785
              H 14 -- C 2                   -0.03        2.72478
              H 16 -- C 1                   -0.04        2.72634
              H 14 -- C 5                   -0.02        2.73438
              H 3  -- C 7                   -0.04        2.74864
              H 2  -- C 3                   -0.03        2.75073
              H 17 -- C 1                   -0.04        2.75141
               O 2 -- O 3                   -0.07        2.75641
              H 1  -- C 4                   -0.02        2.75745
               O 1 -- O 2                   -0.07        2.76127
               N 1 -- O 3                   -0.10        2.76305
              H 4  -- C 7                   -0.04        2.76436
               C 5 -- O 3                   -0.12        2.77805
              H 14 -- C 4                   -0.02        2.77823
              H 19 -- C 2                   -0.04        2.78790
              H 1  -- C 6                   -0.03        2.79117
              H 20 -- C 2                   -0.04        2.79128
              H 2  -- C 6                   -0.03        2.80485
              H 1  -- C 3                   -0.02        2.80650
               C 5 -- O 2                   -0.11        2.81484
              H 6  -- C 1                   -0.03        2.81545
              H 5  -- O 2                   -0.00        2.81861
              H 5  -- O 3                   -0.00        2.83650
              H 14 -- Si 1                  -0.04        2.83693
              H 9  -- O 3                   -0.01        2.86483
              H 7  -- N 1                   -0.01        2.91449
               C 4 -- Si 1                  -0.12        2.92647
              H 3  -- H 15                  -0.00        2.92874
              H 7  -- C 1                   -0.02        2.93632
              H 5  -- C 5                   -0.02        2.94661
              H 1  -- H 15                   0.04        2.94836
              H 9  -- N 1                   -0.01        2.95387
              H 6  -- H 14                   0.03        2.95751
               C 5 -- O 1                   -0.08        2.97977
              H 13 -- O 1                   -0.01        2.99058
              H 1  -- C 5                   -0.02        2.99704
              H 2  -- H 14                   0.03        2.99896
======================================================================
 
 
     Hirshfeld Analysis
     ------------------
Species   Ion     Hirshfeld Charge (e)
======================================
  H        1                 0.06
  H        2                 0.07
  H        3                 0.04
  H        4                 0.05
  H        5                 0.06
  H        6                 0.07
  H        7                 0.05
  H        8                 0.06
  H        9                 0.04
  H       10                 0.06
  H       11                 0.18
  H       12                 0.19
  H       13                 0.18
  H       14                 0.12
  H       15                 0.17
  H       16                 0.04
  H       17                 0.05
  H       18                 0.05
  H       19                 0.04
  H       20                 0.05
  C        1                 0.01
  C        2                -0.06
  C        3                 0.01
  C        4                -0.05
  C        5                -0.15
  C        6                -0.05
  C        7                -0.10
  N        1                 0.02
  O        1                -0.27
  O        2                -0.27
  O        3                -0.25
  Si       1                 0.48
======================================
 

Writing analysis data to Conf_0015.castep_bin

Writing model to Conf_0015.check
 
 A BibTeX formatted list of references used in this run has been written to 
 Conf_0015.bib
 
Initialisation time =     24.77 s
Calculation time    =    671.72 s
Finalisation time   =      1.06 s
Total time          =    697.56 s
Peak Memory Use     = 7913480 kB
 
Overall parallel efficiency rating: Satisfactory (66%)
 
Data was distributed by:-
G-vector (48-way); efficiency rating: Satisfactory (66%)
High Water Mark     = 1881852 kB
