 Job started on host drago31040142.mgmt.cc.csic.es
 at Sun Mar 31 01:04:40 2024

 +-------------------------------------------------+
 |                                                 |
 |      CCC   AA    SSS  TTTTT  EEEEE  PPPP        |
 |     C     A  A  S       T    E      P   P       |
 |     C     AAAA   SS     T    EEE    PPPP        |
 |     C     A  A     S    T    E      P           |
 |      CCC  A  A  SSS     T    EEEEE  P           |
 |                                                 |
 +-------------------------------------------------+
 |                                                 |
 | Materials Studio CASTEP version 2024            |
 | Ab Initio Total Energy Program                  |
 |                                                 |
 | Authors:                                        |
 | M. Segall, M. Probert, C. Pickard, P. Hasnip,   |
 | S. Clark, K. Refson, J. R. Yates,               |
 | A. Bartok-Partay, M. Payne                      |
 |                                                 |
 | Contributors:                                   |
 | P. Lindan, P. Haynes, J. White, V. Milman,      |
 | N. Govind, M. Gibson, P. Tulip, V. Cocula,      |
 | B. Montanari, D. Quigley, M. Glover,            |
 | L. Bernasconi, A. Perlov, M. Plummer,           |
 | E. McNellis, J. Meyer, J. Gale, D. Jochym       |
 | J. Aarons, B. Walker, R. Gillen, D. Jones       |
 | T. Green, I. J. Bush, C. J. Armstrong,          |
 | E. J. Higgins, E. L. Brown, M. S. McFly,        |
 | J. Wilkins, B-C. Shih, P. J. P. Byrne,          |
 | R. J. Maurer, J. C. Womack, J. Dziedzic,        |
 | L. LeBlanc, T. K. Stenczel, J. Kermode,         |
 | S. Sturniolo, B. Shi, B. Durham, M. Evans,      |
 | M. J. Smith, A. Tamerus, Z. Hawkhead,           |
 | V. Ravindran, T. Hollins, S. A. Joyce,          |
 | R. T. Strong, A. M. Reilly                      |
 |                                                 |
 | Copyright (c) 2000 - 2023                       |
 |                                                 |
 | Please cite                                     |
 |                                                 |
 |     "First principles methods using CASTEP"     |
 |                                                 |
 |         Zeitschrift fuer Kristallographie       |
 |           220(5-6) pp. 567-570 (2005)           |
 |                                                 |
 | S. J. Clark, M. D. Segall, C. J. Pickard,       |
 | P. J. Hasnip, M. J. Probert, K. Refson,         |
 | M. C. Payne                                     |
 |                                                 |
 |       in all publications arising from          |
 |              your use of CASTEP                 |
 |                                                 |
 +-------------------------------------------------+
 |                                                 |
 |              http://www.castep.org              |
 |                                                 |
 +-------------------------------------------------+
 
 
 This version was compiled for x86_64-rhel7-intel19.0 on Oct 24 2023
 Code version:    a9f326b
 Intel(R) Math Kernel Library Version 2019.0.4 
 Fundamental constants values: CODATA 2018
 
License checkout of MS_castep successful
 
 
 Atomic calculation performed for H: 1s1
 
 Converged in 41 iterations to an ae energy of -12.488 eV
 
 Identity difference: 2.63E-05
 
   ============================================================                
   | Pseudopotential Report - Date of generation 31-03-2024   |                
   ------------------------------------------------------------                
   | Element: H Ionic charge:  1.00 Level of theory: PBE      |                
   | Atomic Solver: Koelling-Harmon                           |                
   |                                                          |                
   |               Reference Electronic Structure             |                
   |         Orbital         Occupation         Energy        |                
   |            1s              1.000           -0.239        |                
   |                                                          |                
   |                 Pseudopotential Definition               |                
   |        Beta     l      e      Rc     scheme   norm       |                
   |          1      0   -0.239   0.599     qc      0         |                
   |          2      0    0.250   0.599     qc      0         |                
   |         loc     1    0.000   0.599     pn      0         |                
   |                                                          |                
   | Augmentation charge Rinner = 0.421                       |                
   | No partial core correction                               |                
   ------------------------------------------------------------                
   | "1|0.6|9|10|15|10UU(qc=8)[]"                             |                
   ------------------------------------------------------------                
   |      Author: Chris J. Pickard, Cambridge University      |                
   ============================================================                
 
 Doing a self consistent calculation for the test configuration
 
 Atomic calculation performed for H: 1s1
 
 Converged in 41 iterations to an ae energy of -12.488 eV
 
 ---------------------------------------
 AE eigenvalue nl 10 =       -0.23860176
 ---------------------------------------
 PS eigenvalue nl 10 =       -0.23857601
 ---------------------------------------
 Maximum eigenvalue error:   2.57E-05
 
 Derived cutoff energies: C=   1 M=   6 F=  10 E=  20
 
 Checking for ghost states up to   1.51185 Ha
 
 No Ghost States Identified
 
 ***************************************
 
 Atomic calculation performed for C: 1s2 2s2 2p2
 
 Converged in 54 iterations to an ae energy of -1027.632 eV
 
 Identity difference: 2.37E-04
 
   ============================================================                
   | Pseudopotential Report - Date of generation 31-03-2024   |                
   ------------------------------------------------------------                
   | Element: C Ionic charge:  4.00 Level of theory: PBE      |                
   | Atomic Solver: Koelling-Harmon                           |                
   |                                                          |                
   |               Reference Electronic Structure             |                
   |         Orbital         Occupation         Energy        |                
   |            2s              2.000           -0.505        |                
   |            2p              2.000           -0.194        |                
   |                                                          |                
   |                 Pseudopotential Definition               |                
   |        Beta     l      e      Rc     scheme   norm       |                
   |          1      0   -0.505   1.395     qc      0         |                
   |          2      0    0.250   1.395     qc      0         |                
   |          3      1   -0.194   1.395     qc      0         |                
   |          4      1    0.250   1.395     qc      0         |                
   |         loc     2    0.000   1.395     pn      0         |                
   |                                                          |                
   | Augmentation charge Rinner = 0.983                       |                
   | Partial core correction Rc = 0.983                       |                
   ------------------------------------------------------------                
   | "2|1.4|11|12|14.7|20UU:21UU(qc=7)[]"                     |                
   ------------------------------------------------------------                
   |      Author: Chris J. Pickard, Cambridge University      |                
   ============================================================                
 
 Doing a self consistent calculation for the test configuration
 
 Atomic calculation performed for C: 1s2 2s2 2p2
 
 Converged in 54 iterations to an ae energy of -1027.632 eV
 
 ---------------------------------------
 AE eigenvalue nl 10 =      -10.04653081
 AE eigenvalue nl 20 =       -0.50533429
 AE eigenvalue nl 21 =       -0.19423807
 ---------------------------------------
 PS eigenvalue nl 20 =       -0.50531853
 PS eigenvalue nl 21 =       -0.19422214
 ---------------------------------------
 Maximum eigenvalue error:   1.59E-05
 
 Derived cutoff energies: C=   6 M=  10 F=  12 E=  16
 
 Checking for ghost states up to   1.47183 Ha
 
 No Ghost States Identified
 
 ***************************************
 
 Atomic calculation performed for N: 1s2 2s2 2p3
 
 Converged in 55 iterations to an ae energy of -1481.742 eV
 
 Identity difference: 2.27E-04
 
   ============================================================                
   | Pseudopotential Report - Date of generation 31-03-2024   |                
   ------------------------------------------------------------                
   | Element: N Ionic charge:  5.00 Level of theory: PBE      |                
   | Atomic Solver: Koelling-Harmon                           |                
   |                                                          |                
   |               Reference Electronic Structure             |                
   |         Orbital         Occupation         Energy        |                
   |            2s              2.000           -0.683        |                
   |            2p              3.000           -0.261        |                
   |                                                          |                
   |                 Pseudopotential Definition               |                
   |        Beta     l      e      Rc     scheme   norm       |                
   |          1      0   -0.683   1.100     qc      0         |                
   |          2      0    0.250   1.100     qc      0         |                
   |          3      1   -0.261   1.100     qc      0         |                
   |          4      1    0.250   1.100     qc      0         |                
   |         loc     2    0.000   1.100     pn      0         |                
   |                                                          |                
   | Augmentation charge Rinner = 0.769                       |                
   | Partial core correction Rc = 0.769                       |                
   ------------------------------------------------------------                
   | "2|1.1|12|16|19|20UU:21UU(qc=7)[]"                       |                
   ------------------------------------------------------------                
   |      Author: Chris J. Pickard, Cambridge University      |                
   ============================================================                
 
 Doing a self consistent calculation for the test configuration
 
 Atomic calculation performed for N: 1s2 2s2 2p3
 
 Converged in 55 iterations to an ae energy of -1481.742 eV
 
 ---------------------------------------
 AE eigenvalue nl 10 =      -14.13820921
 AE eigenvalue nl 20 =       -0.68290611
 AE eigenvalue nl 21 =       -0.26054797
 ---------------------------------------
 PS eigenvalue nl 20 =       -0.68291221
 PS eigenvalue nl 21 =       -0.26051708
 ---------------------------------------
 Maximum eigenvalue error:   3.09E-05
 
 Derived cutoff energies: C=  10 M=  15 F=  18 E=  23
 
 Checking for ghost states up to   1.48495 Ha
 
 No Ghost States Identified
 
 ***************************************
 
 Atomic calculation performed for O: 1s2 2s2 2p4
 
 Converged in 61 iterations to an ae energy of -2040.902 eV
 
 Identity difference: 4.10E-04
 
   ============================================================                
   | Pseudopotential Report - Date of generation 31-03-2024   |                
   ------------------------------------------------------------                
   | Element: O Ionic charge:  6.00 Level of theory: PBE      |                
   | Atomic Solver: Koelling-Harmon                           |                
   |                                                          |                
   |               Reference Electronic Structure             |                
   |         Orbital         Occupation         Energy        |                
   |            2s              2.000           -0.881        |                
   |            2p              4.000           -0.332        |                
   |                                                          |                
   |                 Pseudopotential Definition               |                
   |        Beta     l      e      Rc     scheme   norm       |                
   |          1      0   -0.881   1.100     qc      0         |                
   |          2      0    0.250   1.100     qc      0         |                
   |          3      1   -0.332   1.100     qc      0         |                
   |          4      1    0.250   1.100     qc      0         |                
   |         loc     2    0.000   1.100     pn      0         |                
   |                                                          |                
   | Augmentation charge Rinner = 0.769                       |                
   | Partial core correction Rc = 0.769                       |                
   ------------------------------------------------------------                
   | "2|1.1|14|18|21|20UU:21UU(qc=7)[]"                       |                
   ------------------------------------------------------------                
   |      Author: Chris J. Pickard, Cambridge University      |                
   ============================================================                
 
 Doing a self consistent calculation for the test configuration
 
 Atomic calculation performed for O: 1s2 2s2 2p4
 
 Converged in 61 iterations to an ae energy of -2040.902 eV
 
 ---------------------------------------
 AE eigenvalue nl 10 =      -18.91475256
 AE eigenvalue nl 20 =       -0.88057101
 AE eigenvalue nl 21 =       -0.33186952
 ---------------------------------------
 PS eigenvalue nl 20 =       -0.88059206
 PS eigenvalue nl 21 =       -0.33182157
 ---------------------------------------
 Maximum eigenvalue error:   4.80E-05
 
 Derived cutoff energies: C=  14 M=  17 F=  20 E=  22
 
 Checking for ghost states up to   1.49452 Ha
 
 No Ghost States Identified
 
 ***************************************
 
 Atomic calculation performed for Si: 1s2 2s2 2p6 3s2 3p2
 
 Converged in 54 iterations to an ae energy of -7886.857 eV
 
 Identity difference: 1.35E-04
 
   ============================================================                
   | Pseudopotential Report - Date of generation 31-03-2024   |                
   ------------------------------------------------------------                
   | Element: Si Ionic charge:  4.00 Level of theory: PBE     |                
   | Atomic Solver: Koelling-Harmon                           |                
   |                                                          |                
   |               Reference Electronic Structure             |                
   |         Orbital         Occupation         Energy        |                
   |            3s              2.000           -0.397        |                
   |            3p              2.000           -0.150        |                
   |                                                          |                
   |                 Pseudopotential Definition               |                
   |        Beta     l      e      Rc     scheme   norm       |                
   |          1      0   -0.397   1.797     qc      0         |                
   |          2      0    0.250   1.797     qc      0         |                
   |          3      1   -0.150   1.797     qc      0         |                
   |          4      1    0.250   1.797     qc      0         |                
   |          5      2    0.000   1.797     qc      0         |                
   |          6      2    0.250   1.797     qc      0         |                
   |         loc     3    0.000   1.797     pn      0         |                
   |                                                          |                
   | Augmentation charge Rinner = 1.255                       |                
   | Partial core correction Rc = 1.255                       |                
   ------------------------------------------------------------                
   | "3|1.8|3.6|5|7|30UU:31UU:32UU[]"                         |                
   ------------------------------------------------------------                
   |      Author: Chris J. Pickard, Cambridge University      |                
   ============================================================                
 
 Doing a self consistent calculation for the test configuration
 
 Atomic calculation performed for Si: 1s2 2s2 2p6 3s2 3p2
 
 Converged in 54 iterations to an ae energy of -7886.857 eV
 
 ---------------------------------------
 AE eigenvalue nl 10 =      -65.63192903
 AE eigenvalue nl 20 =       -5.12654326
 AE eigenvalue nl 21 =       -3.51173659
 AE eigenvalue nl 30 =       -0.39736430
 AE eigenvalue nl 31 =       -0.14998156
 ---------------------------------------
 PS eigenvalue nl 30 =       -0.39734922
 PS eigenvalue nl 31 =       -0.14996719
 ---------------------------------------
 Maximum eigenvalue error:   1.51E-05
 
 Derived cutoff energies: C=   1 M=   3 F=   6 E=   6
 
 Checking for ghost states up to   1.41161 Ha
 
 No Ghost States Identified
 
 ***************************************
 
 Pseudo atomic calculation performed for H 1s1
 
 Converged in 13 iterations to a total energy of -12.4790 eV
 
 Pseudo atomic calculation performed for C 2s2 2p2
 
 Converged in 17 iterations to a total energy of -148.5208 eV
 
 Pseudo atomic calculation performed for N 2s2 2p3
 
 Converged in 21 iterations to a total energy of -268.1820 eV
 
 Pseudo atomic calculation performed for O 2s2 2p4
 
 Converged in 23 iterations to a total energy of -432.6536 eV
 
 Pseudo atomic calculation performed for Si 3s2 3p2
 
 Converged in 11 iterations to a total energy of -165.0683 eV
 Calculation parallelised over 48 processes.
 Data is distributed by G-vector(48-way)

 ************************************ Title ************************************
 CASTEP calculation from BIOVIA Materials Studio 2024

 ***************************** General Parameters ******************************
  
 output verbosity                               : normal  (1)
 write checkpoint data to                       : Conf_0014.check
 type of calculation                            : geometry optimization
 stress calculation                             : off
 density difference calculation                 : off
 electron localisation func (ELF) calculation   : off
 Hirshfeld analysis                             : on
 polarisation (Berry phase) analysis            : off
 molecular orbital projected DOS                : off
 deltaSCF calculation                           : off
 unlimited duration calculation
 timing information                             : on
 memory usage estimate                          : on
 write extra output files                       : on
 write final potential to formatted file        : off
 write final density to formatted file          : off
 write BibTeX reference list                    : on
 write OTFG pseudopotential files               : on
 write electrostatic potential file             : on
 write bands file                               : on
 checkpoint writing                             : both castep_bin and check files
  
 output         length unit                     : A
 output           mass unit                     : amu
 output           time unit                     : ps
 output         charge unit                     : e
 output           spin unit                     : hbar/2
 output         energy unit                     : eV
 output          force unit                     : eV/A
 output       velocity unit                     : A/ps
 output       pressure unit                     : GPa
 output     inv_length unit                     : 1/A
 output      frequency unit                     : cm-1
 output force constant unit                     : eV/A**2
 output         volume unit                     : A**3
 output   IR intensity unit                     : (D/A)**2/amu
 output         dipole unit                     : D
 output         efield unit                     : eV/A/e
 output        entropy unit                     : J/mol/K
 output    efield chi2 unit                     : pm/V
  
 wavefunctions paging                           : none
 random number generator seed                   :   10443338
 data distribution                              : optimal for this architecture
 optimization strategy                          : balance speed and memory

 *********************** Exchange-Correlation Parameters ***********************
  
 using functional                               : Perdew Burke Ernzerhof
 relativistic treatment                         : Koelling-Harmon
 DFT+D: Semi-empirical dispersion correction    : on
 SEDC with                                      : G06 correction scheme

 ************************* Pseudopotential Parameters **************************
  
 pseudopotential representation                 : reciprocal space
 <beta|phi> representation                      : reciprocal space
 spin-orbit coupling                            : off

 **************************** Basis Set Parameters *****************************
  
 plane wave basis set cut-off                   :   600.0000   eV
 size of standard grid                          :     1.5000
 size of   fine   gmax                          :    18.8237   1/A
 largest prime factor in FFT                    :          5
 finite basis set correction                    : none

 **************************** Electronic Parameters ****************************
  
 number of  electrons                           :  74.00    
 net charge of system                           : +1.000    
 treating system as non-spin-polarized
 number of bands                                :         37

 ********************* Electronic Minimization Parameters **********************
  
 Method: Treating system as non-metallic,
         and number of  SD  steps               :          1
         and number of  CG  steps               :          4
  
 total energy / atom convergence tol.           : 0.2000E-05   eV
 eigen-energy convergence tolerance             : 0.1000E-05   eV
 max force / atom convergence tol.              : ignored
 convergence tolerance window                   :          3   cycles
 max. number of SCF cycles                      :        100
 periodic dipole correction                     : NONE

 ************************** Density Mixing Parameters **************************
  
 density-mixing scheme                          : Pulay
 max. length of mixing history                  :         20
 charge density mixing amplitude                : 0.5000    
 cut-off energy for mixing                      :  600.0       eV
 charge density mixing g-vector                 :  1.500       1/A

 *********************** Population Analysis Parameters ************************
  
 Population analysis with cutoff                :  3.000       A
 Population analysis output                     : summary and pdos components

 ********************** Geometry Optimization Parameters ***********************
  
 optimization method                            : LBFGS
 max. no. of LBFGS updates                      : unbounded
 preconditioned LBFGS is activated
 preconditioner type                            : EXP
     stabilization constant                     :     0.1000
     parameter A                                :     3.0000
     nearest neighbor distance                  : automatic
     cut-off distance                           : automatic
     parameter mu                               : automatic
 variable cell method                           : fixed basis quality
 max. number of steps                           :        300
 estimated bulk modulus                         :  500.0       GPa
 estimated <frequency>                          :  1668.       cm-1
 geom line minimiser                            : on
 with line minimiser tolerance                  :     0.4000
 total energy convergence tolerance             : 0.2000E-04   eV/atom
        max ionic |force| tolerance             : 0.5000E-01   eV/A
 max ionic |displacement| tolerance             : 0.2000E-02   A
   max |stress component| tolerance             : 0.1000       GPa
 convergence tolerance window                   :          2   steps
 backup results every                           :          5   steps
 write geom trajectory file                     : on

 *******************************************************************************
  
 
                           -------------------------------
                                      Unit Cell
                           -------------------------------
        Real Lattice(A)                      Reciprocal Lattice(1/A)
    13.4840002    -0.0000006    -0.0000006        0.465973392   0.000000000   0.000000000
     0.0000000    20.4006996    -0.0000009        0.000000013   0.307988717   0.000000000
     0.0000000     0.0000000    45.0000000        0.000000006   0.000000006   0.139626340
 
                       Lattice parameters(A)       Cell Angles
                    a =     13.484000          alpha =   90.000003
                    b =     20.400700          beta  =   90.000003
                    c =     45.000000          gamma =   90.000003
 
                       Current cell volume =         12378.736702       A**3
                                   density =             0.015698   AMU/A**3
                                           =             0.026068     g/cm^3
 
                           -------------------------------
                                     Cell Contents
                           -------------------------------
                         Total number of ions in cell =   32
                      Total number of species in cell =    5
                        Max number of any one species =   20
 
            xxxxxxxxxxxxxxxxxxxxxxxxxxxxxxxxxxxxxxxxxxxxxxxxxxxxxxxxxxxx
            x  Element    Atom        Fractional coordinates of atoms  x
            x            Number           u          v          w      x
            x----------------------------------------------------------x
            x  H            1         0.445025   0.477932   0.520115   x 
            x  H            2         0.515843   0.552148   0.523267   x 
            x  H            3         0.391813   0.489600   0.573726   x 
            x  H            4         0.462583   0.562776   0.576870   x 
            x  H            5         0.291113   0.614960   0.488520   x 
            x  H            6         0.419262   0.599718   0.484084   x 
            x  H            7         0.241983   0.519083   0.466946   x 
            x  H            8         0.332020   0.469677   0.483769   x 
            x  H            9         0.374002   0.559348   0.430179   x 
            x  H           10         0.347466   0.474809   0.428217   x 
            x  H           11         0.637114   0.558581   0.463166   x 
            x  H           12         0.563343   0.453363   0.402266   x 
            x  H           13         0.588112   0.398236   0.463221   x 
            x  H           14         0.296203   0.542406   0.531673   x 
            x  H           15         0.362144   0.609926   0.534758   x 
            x  H           16         0.547510   0.426091   0.563169   x 
            x  H           17         0.618201   0.498986   0.566227   x 
            x  H           18         0.624207   0.435022   0.613602   x 
            x  H           19         0.492732   0.438129   0.616511   x 
            x  H           20         0.563936   0.511435   0.619580   x 
            x  C            1         0.451280   0.525049   0.531953   x 
            x  C            2         0.458771   0.514902   0.565484   x 
            x  C            3         0.348951   0.577162   0.491274   x 
            x  C            4         0.322066   0.516747   0.472037   x 
            x  C            5         0.381133   0.512815   0.442507   x 
            x  C            6         0.550180   0.474435   0.574226   x 
            x  C            7         0.558168   0.464213   0.607799   x 
            x  N            1         0.357279   0.566147   0.524335   x 
            x  O            1         0.579514   0.485809   0.416562   x 
            x  O            2         0.528753   0.422754   0.465553   x 
            x  O            3         0.570125   0.548237   0.467883   x 
            x  Si           1         0.517699   0.491643   0.447441   x 
            xxxxxxxxxxxxxxxxxxxxxxxxxxxxxxxxxxxxxxxxxxxxxxxxxxxxxxxxxxxx
 
 
                         No user defined ionic velocities
 
                           -------------------------------
                                   Details of Species
                           -------------------------------
 
                               Mass of species in AMU
                                    H    1.0080000
                                    C   12.0109997
                                    N   14.0070000
                                    O   15.9989996
                                    Si   28.0849991
 
                          Electric Quadrupole Moment (Barn)
                                    H    0.0028600 Isotope  2
                                    C    0.0332700 Isotope 11
                                    N    0.0204400 Isotope 14
                                    O   -0.0255800 Isotope 17
                                    Si    1.0000000 No Isotope Defined
 
                          Files used for pseudopotentials:
                                    H 1|0.6|9|10|15|10UU(qc=8)[]
                                    C 2|1.4|11|12|14.7|20UU:21UU(qc=7)[]
                                    N 2|1.1|12|16|19|20UU:21UU(qc=7)[]
                                    O 2|1.1|14|18|21|20UU:21UU(qc=7)[]
                                    Si 3|1.8|3.6|5|7|30UU:31UU:32UU[]
 
                           -------------------------------
                              k-Points For BZ Sampling
                           -------------------------------
                       MP grid size for SCF calculation is  1  1  1
                            with an offset of   0.000  0.000  0.000
                       Number of kpoints used =             1
 
                           -------------------------------
                               Symmetry and Constraints
                           -------------------------------
 
                      Maximum deviation from symmetry =  0.00000         ANG
 
                      Number of symmetry operations   =           1
                      Number of nonlinear constraints =           3
         There are no ionic constraints specified or generated for this cell
                      Point group of crystal =     1: C1, 1, 1
                      Space group of crystal =     1: P1, P 1
 
             Set iprint > 1 for details on symmetry rotations/translations
 
                         Centre of mass is NOT constrained
 
                         Number of cell constraints= 6
                         Cell constraints are:  0 0 0 0 0 0
 
                         External pressure/stress (GPa)
                          0.00000   0.00000   0.00000
                                    0.00000   0.00000
                                              0.00000
 
                                --------------------
                                  DFT-D parameters
                                --------------------
 
                          Dispersion-correction scheme : G06       
                        Parameter s6 :   0.750000 (default)
                        Parameter d  :  20.000000 (default)
 
        xxxxxxxxxxxxxxxxxxxxxxxxxxxxxxxxxxxxxxxxxxxxxxxxxxxxxxxxxxxxxxxxxxxx
        x              Atomic DFT-D parameters                             x
        x  Species      C6            R0                                   x
        x               eV A^6        Ang                                  x
        x------------------------------------------------------------------x
        x  H             1.4510       1.0010   (default)                   x
        x  C            18.1375       1.4520   (default)                   x
        x  N            12.7481       1.3970   (default)                   x
        x  O             7.2550       1.3420   (default)                   x
        x  Si           95.6622       1.7160   (default)                   x
        xxxxxxxxxxxxxxxxxxxxxxxxxxxxxxxxxxxxxxxxxxxxxxxxxxxxxxxxxxxxxxxxxxxx
 
 
+---------------- MEMORY AND SCRATCH DISK ESTIMATES PER PROCESS --------------+
|                                                     Memory          Disk    |
| Baseline code, static data and system overhead     6530.0 MB         0.0 MB |
| BLAS internal memory storage                          0.0 MB         0.0 MB |
| Model and support data                              540.6 MB         0.0 MB |
| Electronic energy minimisation requirements          31.8 MB         0.0 MB |
| Force calculation requirements                        6.8 MB         0.0 MB |
|                                               ----------------------------- |
| Approx. total storage required per process         7102.3 MB         0.0 MB |
|                                                                             |
| Requirements will fluctuate during execution and may exceed these estimates |
+-----------------------------------------------------------------------------+
Calculating approximate eigenstates for fixed initial Hamiltonian
Cut-off for approx. calculation is  119.774 eV
Improving approx. states at cut-off of  300.000 eV
Resetting cut-off to  600.000 eV
Calculating total energy with cut-off of  600.000 eV.
------------------------------------------------------------------------ <-- SCF
SCF loop      Energy                           Energy gain       Timer   <-- SCF
                                               per atom          (sec)   <-- SCF
------------------------------------------------------------------------ <-- SCF
Initial  -2.92851471E+003                                         31.64  <-- SCF
      1  -3.20274454E+003                    8.56968197E+000      32.47  <-- SCF
      2  -3.20300250E+003                    8.06141916E-003      33.27  <-- SCF
      3  -3.19279590E+003                   -3.18956275E-001      34.43  <-- SCF
      4  -3.19160691E+003                   -3.71560164E-002      35.62  <-- SCF
      5  -3.19102492E+003                   -1.81871251E-002      36.65  <-- SCF
      6  -3.19093540E+003                   -2.79752522E-003      37.99  <-- SCF
      7  -3.19087770E+003                   -1.80322705E-003      39.07  <-- SCF
      8  -3.19086530E+003                   -3.87340286E-004      40.21  <-- SCF
      9  -3.19085356E+003                   -3.66828851E-004      41.24  <-- SCF
     10  -3.19083891E+003                   -4.58061291E-004      42.31  <-- SCF
     11  -3.19081128E+003                   -8.63453679E-004      43.38  <-- SCF
     12  -3.19075203E+003                   -1.85134992E-003      44.44  <-- SCF
     13  -3.19069000E+003                   -1.93855250E-003      45.47  <-- SCF
     14  -3.19061764E+003                   -2.26132714E-003      46.48  <-- SCF
     15  -3.19056412E+003                   -1.67230440E-003      47.49  <-- SCF
     16  -3.19051641E+003                   -1.49105596E-003      48.50  <-- SCF
     17  -3.19047961E+003                   -1.14984275E-003      49.51  <-- SCF
     18  -3.19045370E+003                   -8.09885427E-004      50.52  <-- SCF
     19  -3.19042806E+003                   -8.01090672E-004      51.52  <-- SCF
     20  -3.19039520E+003                   -1.02705668E-003      52.55  <-- SCF
     21  -3.19037314E+003                   -6.89392696E-004      53.61  <-- SCF
     22  -3.19035661E+003                   -5.16446367E-004      54.58  <-- SCF
     23  -3.19035219E+003                   -1.37981177E-004      55.66  <-- SCF
     24  -3.19035529E+003                    9.66278346E-005      56.70  <-- SCF
     25  -3.19035852E+003                    1.01000997E-004      57.61  <-- SCF
     26  -3.19036354E+003                    1.56898312E-004      58.51  <-- SCF
     27  -3.19036864E+003                    1.59355928E-004      59.35  <-- SCF
     28  -3.19037142E+003                    8.70337071E-005      60.19  <-- SCF
     29  -3.19037598E+003                    1.42534983E-004      61.01  <-- SCF
     30  -3.19037751E+003                    4.75519445E-005      61.82  <-- SCF
     31  -3.19037978E+003                    7.11766695E-005      62.63  <-- SCF
     32  -3.19038142E+003                    5.11375975E-005      63.44  <-- SCF
     33  -3.19038252E+003                    3.42545420E-005      64.25  <-- SCF
     34  -3.19038380E+003                    4.02582452E-005      65.06  <-- SCF
     35  -3.19038447E+003                    2.07000774E-005      65.87  <-- SCF
     36  -3.19038513E+003                    2.06970014E-005      66.70  <-- SCF
     37  -3.19038585E+003                    2.23852303E-005      67.50  <-- SCF
     38  -3.19038615E+003                    9.41760029E-006      68.35  <-- SCF
     39  -3.19038661E+003                    1.44436528E-005      69.18  <-- SCF
     40  -3.19038686E+003                    7.74735337E-006      70.00  <-- SCF
     41  -3.19038707E+003                    6.51368337E-006      70.81  <-- SCF
     42  -3.19038722E+003                    4.97218347E-006      71.62  <-- SCF
     43  -3.19038737E+003                    4.44902837E-006      72.43  <-- SCF
     44  -3.19038753E+003                    5.19284494E-006      73.24  <-- SCF
     45  -3.19038759E+003                    1.71664742E-006      74.04  <-- SCF
     46  -3.19038764E+003                    1.70690087E-006      74.85  <-- SCF
     47  -3.19038767E+003                    8.46952013E-007      75.66  <-- SCF
     48  -3.19038770E+003                    9.95012999E-007      76.47  <-- SCF
------------------------------------------------------------------------ <-- SCF
 
Final energy =  -3190.387701903     eV
(energy not corrected for finite basis set)
 
(SEDC) Total Energy Correction : -0.814279E+00 eV

Dispersion corrected final energy* =  -3191.201981293     eV

Writing analysis data to Conf_0014.castep_bin

Writing model to Conf_0014.check

WARNING - nonlinear constraints cannot be used with LBFGS algorithm
        - consider setting geom_method=DELOCALIZED
 
        => Turning nonlinear constraints OFF
 
+---------------- MEMORY AND SCRATCH DISK ESTIMATES PER PROCESS --------------+
|                                                     Memory          Disk    |
| Model and support data                              550.1 MB         0.0 MB |
| Electronic energy minimisation requirements          31.8 MB         0.0 MB |
| Geometry minimisation requirements                   34.8 MB         0.0 MB |
|                                               ----------------------------- |
| Approx. total storage required per process          616.7 MB         0.0 MB |
|                                                                             |
| Requirements will fluctuate during execution and may exceed these estimates |
+-----------------------------------------------------------------------------+
 
 
 ************************************** Forces **************************************
 *                                                                                  *
 *                           Cartesian components (eV/A)                            *
 * -------------------------------------------------------------------------------- *
 *                         x                    y                    z              *
 *                                                                                  *
 * H               1     -0.05250              0.21895             -0.07796         *
 * H               2     -0.31447             -0.00051             -0.14742         *
 * H               3     -0.02140              0.05086              0.01499         *
 * H               4     -0.02199              0.02923             -0.01344         *
 * H               5      0.09507             -0.11229              0.01794         *
 * H               6     -0.01353             -0.22297              0.19128         *
 * H               7      0.13588              0.02187              0.03750         *
 * H               8      0.11389              0.16071              0.22458         *
 * H               9      0.10893             -0.07325             -0.01015         *
 * H              10      0.05805              0.09907              0.13887         *
 * H              11      0.89421              0.29766             -0.20966         *
 * H              12     -0.19542             -0.69499             -0.73715         *
 * H              13      0.76760             -0.55558             -0.11685         *
 * H              14     -0.53688             -0.36080              0.39254         *
 * H              15      0.01438              0.59046              0.37939         *
 * H              16     -0.03585              0.15725             -0.03650         *
 * H              17     -0.10186              0.01577             -0.03866         *
 * H              18     -0.12309              0.10056             -0.10514         *
 * H              19      0.06809              0.03143             -0.04339         *
 * H              20     -0.03219             -0.07250             -0.04169         *
 * C               1     -0.27001              0.14126              0.55525         *
 * C               2     -0.04731              0.00619             -0.01397         *
 * C               3     -0.30161              0.62197             -0.68795         *
 * C               4     -0.21487             -0.20476              0.07123         *
 * C               5      0.38659             -0.02444              0.39271         *
 * C               6      0.21930             -0.13595             -0.08692         *
 * C               7     -0.04094              0.03300              0.14773         *
 * N               1      1.45276             -1.34106             -1.03410         *
 * O               1      0.47967              0.97231              0.15333         *
 * O               2     -1.35959             -0.17247              0.60495         *
 * O               3     -0.62566              0.57672              0.35823         *
 * Si              1     -0.48527             -0.15368             -0.27959         *
 *                                                                                  *
 ************************************************************************************
 EXP precond LBFGS => estimated nearest neighbor distance :  1.625       A
 EXP precond LBFGS => estimated cutoff distance :  3.249       A
 doing test perturbation to get energy scale for EXP preconditioner
 
                           -------------------------------
                                     Cell Contents
                           -------------------------------
 
            xxxxxxxxxxxxxxxxxxxxxxxxxxxxxxxxxxxxxxxxxxxxxxxxxxxxxxxxxxxxxxxxx
            x  Element         Atom        Fractional coordinates of atoms  x
            x                 Number           u          v          w      x
            x---------------------------------------------------------------x
            x  H                 1         0.446113   0.478574   0.520360   x
            x  H                 2         0.517006   0.552593   0.523509   x
            x  H                 3         0.392822   0.490215   0.573900   x
            x  H                 4         0.463692   0.563189   0.577039   x
            x  H                 5         0.291922   0.615199   0.488802   x
            x  H                 6         0.420313   0.600009   0.484370   x
            x  H                 7         0.242676   0.519623   0.467249   x
            x  H                 8         0.332918   0.470336   0.484055   x
            x  H                 9         0.374980   0.559772   0.430510   x
            x  H                10         0.348394   0.475457   0.428549   x
            x  H                11         0.638317   0.559006   0.463472   x
            x  H                12         0.564535   0.454054   0.402613   x
            x  H                13         0.589313   0.399004   0.463527   x
            x  H                14         0.297024   0.542881   0.531904   x
            x  H                15         0.363100   0.610182   0.534985   x
            x  H                16         0.548695   0.426826   0.563358   x
            x  H                17         0.619406   0.499579   0.566411   x
            x  H                18         0.625412   0.435744   0.613715   x
            x  H                19         0.493874   0.438846   0.616619   x
            x  H                20         0.565129   0.511996   0.619683   x
            x  C                 1         0.452376   0.525573   0.532184   x
            x  C                 2         0.459876   0.515454   0.565670   x
            x  C                 3         0.349882   0.577528   0.491552   x
            x  C                 4         0.322943   0.517294   0.472334   x
            x  C                 5         0.382123   0.513372   0.442829   x
            x  C                 6         0.551365   0.475084   0.574399   x
            x  C                 7         0.559358   0.464883   0.607921   x
            x  N                 1         0.358226   0.566549   0.524576   x
            x  O                 1         0.580712   0.486433   0.416902   x
            x  O                 2         0.529926   0.423494   0.465856   x
            x  O                 3         0.571320   0.548695   0.468184   x
            x  Si                1         0.518864   0.492253   0.447760   x
            xxxxxxxxxxxxxxxxxxxxxxxxxxxxxxxxxxxxxxxxxxxxxxxxxxxxxxxxxxxxxxxxx
 
 
------------------------------------------------------------------------ <-- SCF
SCF loop      Energy                           Energy gain       Timer   <-- SCF
                                               per atom          (sec)   <-- SCF
------------------------------------------------------------------------ <-- SCF
Initial  -3.19163564E+003                                         78.48  <-- SCF
      1  -3.19035956E+003                   -3.98775545E-002      79.30  <-- SCF
      2  -3.19038188E+003                    6.97328481E-004      80.46  <-- SCF
      3  -3.19035736E+003                   -7.66190270E-004      81.52  <-- SCF
      4  -3.19037426E+003                    5.28126066E-004      82.54  <-- SCF
      5  -3.19037441E+003                    4.76832321E-006      83.39  <-- SCF
      6  -3.19037463E+003                    6.77297767E-006      84.20  <-- SCF
      7  -3.19037469E+003                    2.10085913E-006      84.98  <-- SCF
      8  -3.19037475E+003                    1.67749792E-006      85.77  <-- SCF
      9  -3.19037479E+003                    1.17108071E-006      86.55  <-- SCF
     10  -3.19037481E+003                    8.51588897E-007      87.34  <-- SCF
     11  -3.19037485E+003                    1.01533103E-006      88.12  <-- SCF
------------------------------------------------------------------------ <-- SCF
 
Final energy =  -3190.374845569     eV
(energy not corrected for finite basis set)
 
(SEDC) Total Energy Correction : -0.814941E+00 eV

Dispersion corrected final energy* =  -3191.189786751     eV
 
 ************************************** Forces **************************************
 *                                                                                  *
 *                           Cartesian components (eV/A)                            *
 * -------------------------------------------------------------------------------- *
 *                         x                    y                    z              *
 *                                                                                  *
 * H               1     -0.05640              0.14480             -0.10139         *
 * H               2     -0.33389              0.03600             -0.15454         *
 * H               3     -0.01043              0.03951              0.02070         *
 * H               4     -0.02171              0.10285              0.02750         *
 * H               5      0.08483             -0.07234              0.00999         *
 * H               6     -0.03691             -0.19448              0.19120         *
 * H               7      0.19222              0.01988              0.04720         *
 * H               8      0.10891              0.08860              0.25097         *
 * H               9      0.10007              0.01009             -0.03617         *
 * H              10      0.05088              0.05883              0.11094         *
 * H              11      0.89347              0.30440             -0.21195         *
 * H              12     -0.22109             -0.74699             -0.80230         *
 * H              13      0.75848             -0.56041             -0.11323         *
 * H              14     -0.49087             -0.36655              0.39814         *
 * H              15      0.01448              0.71047              0.43483         *
 * H              16     -0.04633              0.10058             -0.06497         *
 * H              17     -0.09759              0.01870             -0.05282         *
 * H              18     -0.13156              0.07798             -0.09039         *
 * H              19      0.08111              0.02069             -0.03489         *
 * H              20     -0.04028              0.02286             -0.00887         *
 * C               1     -0.29757              0.17426              0.55475         *
 * C               2     -0.06179             -0.05286             -0.01227         *
 * C               3     -0.27832              0.67966             -0.69540         *
 * C               4     -0.28055             -0.20719              0.01671         *
 * C               5      0.40323             -0.06468              0.42983         *
 * C               6      0.19714             -0.11518             -0.10176         *
 * C               7     -0.05526             -0.01727              0.16159         *
 * N               1      1.59225             -1.45682             -1.05102         *
 * O               1      0.49568              0.99517              0.16777         *
 * O               2     -1.31663             -0.24980              0.63618         *
 * O               3     -0.62309              0.63830              0.40524         *
 * Si              1     -0.57247             -0.13905             -0.33159         *
 *                                                                                  *
 ************************************************************************************
 EXP precond LBFGS => estimated parameter mu :  1.798       eV/A**2
 LBFGS: finished iteration     0 with enthalpy= -3.19120198E+003 eV
  
 +-----------+-----------------+-----------------+------------+-----+ <-- LBFGS
 | Parameter |      value      |    tolerance    |    units   | OK? | <-- LBFGS
 +-----------+-----------------+-----------------+------------+-----+ <-- LBFGS
 |  dE/ion   |   0.000000E+000 |   2.000000E-005 |         eV | No  | <-- LBFGS
 |  |F|max   |   2.400467E+000 |   5.000000E-002 |       eV/A | No  | <-- LBFGS
 |  |dR|max  |   7.604853E-015 |   2.000000E-003 |          A | No  | <-- LBFGS
 +-----------+-----------------+-----------------+------------+-----+ <-- LBFGS
  

================================================================================
 Starting LBFGS iteration          1 ...
================================================================================
  
 +------------+-------------+-------------+-----------------+ <-- min LBFGS
 |    Step    |   lambda    |   F.delta'  |    enthalpy     | <-- min LBFGS
 +------------+-------------+-------------+-----------------+ <-- min LBFGS
 |  previous  |    0.000000 |    1.790537 |    -3191.201981 | <-- min LBFGS
 +------------+-------------+-------------+-----------------+ <-- min LBFGS
  

--------------------------------------------------------------------------------
 LBFGS: starting iteration         1 with trial guess (lambda=  1.000000)
--------------------------------------------------------------------------------
 
                           -------------------------------
                                     Cell Contents
                           -------------------------------
 
            xxxxxxxxxxxxxxxxxxxxxxxxxxxxxxxxxxxxxxxxxxxxxxxxxxxxxxxxxxxxxxxxx
            x  Element         Atom        Fractional coordinates of atoms  x
            x                 Number           u          v          w      x
            x---------------------------------------------------------------x
            x  H                 1         0.444243   0.478438   0.520181   x
            x  H                 2         0.513521   0.552085   0.523111   x
            x  H                 3         0.390995   0.489833   0.573589   x
            x  H                 4         0.461766   0.562948   0.576671   x
            x  H                 5         0.294184   0.613582   0.488348   x
            x  H                 6         0.421145   0.598479   0.484281   x
            x  H                 7         0.245585   0.518420   0.467809   x
            x  H                 8         0.334842   0.469552   0.484965   x
            x  H                 9         0.378216   0.558811   0.431357   x
            x  H                10         0.351165   0.475011   0.429772   x
            x  H                11         0.643794   0.567218   0.463083   x
            x  H                12         0.561730   0.452284   0.398317   x
            x  H                13         0.583071   0.390278   0.464473   x
            x  H                14         0.296840   0.538441   0.532027   x
            x  H                15         0.365853   0.609483   0.535045   x
            x  H                16         0.546234   0.427380   0.562670   x
            x  H                17         0.616432   0.499614   0.565718   x
            x  H                18         0.621601   0.436412   0.612898   x
            x  H                19         0.491537   0.439149   0.615962   x
            x  H                20         0.562033   0.511962   0.619034   x
            x  C                 1         0.450193   0.524887   0.532475   x
            x  C                 2         0.457853   0.515025   0.565313   x
            x  C                 3         0.350545   0.577289   0.490564   x
            x  C                 4         0.324143   0.515701   0.472886   x
            x  C                 5         0.385536   0.512532   0.444103   x
            x  C                 6         0.549642   0.474818   0.573718   x
            x  C                 7         0.556350   0.465165   0.607417   x
            x  N                 1         0.364123   0.561499   0.523356   x
            x  O                 1         0.580840   0.490250   0.414435   x
            x  O                 2         0.514155   0.417240   0.467655   x
            x  O                 3         0.568356   0.556288   0.468614   x
            x  Si                1         0.512004   0.492066   0.447072   x
            xxxxxxxxxxxxxxxxxxxxxxxxxxxxxxxxxxxxxxxxxxxxxxxxxxxxxxxxxxxxxxxxx
 
 
------------------------------------------------------------------------ <-- SCF
SCF loop      Energy                           Energy gain       Timer   <-- SCF
                                               per atom          (sec)   <-- SCF
------------------------------------------------------------------------ <-- SCF
Initial  -3.20413189E+003                                         89.47  <-- SCF
      1  -3.18601117E+003                   -5.66272574E-001      90.29  <-- SCF
      2  -3.18938619E+003                    1.05469425E-001      91.62  <-- SCF
      3  -3.18877626E+003                   -1.90603112E-002      92.82  <-- SCF
      4  -3.18885837E+003                    2.56586543E-003      93.96  <-- SCF
      5  -3.18889957E+003                    1.28750562E-003      95.03  <-- SCF
      6  -3.18890302E+003                    1.07694237E-004      96.18  <-- SCF
      7  -3.18890440E+003                    4.31377011E-005      97.08  <-- SCF
      8  -3.18890529E+003                    2.78874475E-005      97.86  <-- SCF
      9  -3.18890628E+003                    3.09040484E-005      98.82  <-- SCF
     10  -3.18890685E+003                    1.78452675E-005      99.62  <-- SCF
     11  -3.18890711E+003                    8.17305550E-006     100.40  <-- SCF
     12  -3.18890762E+003                    1.58995752E-005     101.24  <-- SCF
     13  -3.18890770E+003                    2.59314449E-006     102.04  <-- SCF
     14  -3.18890792E+003                    6.72118661E-006     102.83  <-- SCF
     15  -3.18890807E+003                    4.76850046E-006     103.62  <-- SCF
     16  -3.18890824E+003                    5.48262011E-006     104.41  <-- SCF
     17  -3.18890841E+003                    5.05741257E-006     105.21  <-- SCF
     18  -3.18890853E+003                    3.97340235E-006     106.00  <-- SCF
     19  -3.18890866E+003                    3.91800437E-006     106.80  <-- SCF
     20  -3.18890872E+003                    1.83786506E-006     107.60  <-- SCF
     21  -3.18890879E+003                    2.38947768E-006     108.39  <-- SCF
     22  -3.18890885E+003                    1.73034829E-006     109.20  <-- SCF
     23  -3.18890891E+003                    1.95126121E-006     110.01  <-- SCF
     24  -3.18890895E+003                    1.09547090E-006     110.81  <-- SCF
     25  -3.18890899E+003                    1.44344856E-006     111.62  <-- SCF
     26  -3.18890901E+003                    4.57399586E-007     112.42  <-- SCF
------------------------------------------------------------------------ <-- SCF
 
Final energy =  -3188.909007862     eV
(energy not corrected for finite basis set)
 
(SEDC) Total Energy Correction : -0.826500E+00 eV

Dispersion corrected final energy* =  -3189.735508262     eV
 
 ************************************** Forces **************************************
 *                                                                                  *
 *                           Cartesian components (eV/A)                            *
 * -------------------------------------------------------------------------------- *
 *                         x                    y                    z              *
 *                                                                                  *
 * H               1      0.33604             -0.19302              0.10800         *
 * H               2      0.08834             -0.19624              0.05365         *
 * H               3     -0.06397             -0.01023              0.08176         *
 * H               4     -0.04831              0.02156              0.01677         *
 * H               5     -0.79891              0.71518              0.17010         *
 * H               6      0.45372              0.08917             -0.26826         *
 * H               7     -0.44913             -0.11133             -0.23692         *
 * H               8      0.13635              0.02182              0.30960         *
 * H               9      0.04514             -0.17032              0.17133         *
 * H              10      0.04433             -0.00902             -0.07938         *
 * H              11     -3.32905             -0.89781              0.63063         *
 * H              12      0.83604              2.74810              2.72091         *
 * H              13     -3.23951              2.00701              0.49102         *
 * H              14      1.64254              0.79515             -0.73469         *
 * H              15     -0.11214             -2.08647             -1.02481         *
 * H              16      0.00207             -0.33436             -0.18770         *
 * H              17      0.15156              0.12151             -0.11443         *
 * H              18      0.32008             -0.22211              0.11809         *
 * H              19     -0.20225             -0.12570              0.06023         *
 * H              20      0.00915              0.24632              0.12422         *
 * C               1      1.33262             -0.85192             -0.96606         *
 * C               2     -0.02669              0.04406              0.47782         *
 * C               3      0.74753             -1.31188              0.64815         *
 * C               4      0.40124              0.21189             -0.23939         *
 * C               5     -2.41610              0.45995             -0.71718         *
 * C               6     -0.25150              0.20880              0.42685         *
 * C               7     -0.04538              0.01355             -0.36233         *
 * N               1     -3.51671              3.14573              1.82585         *
 * O               1     -2.03680             -2.66124             -0.67446         *
 * O               2      3.08897              0.23578             -1.86213         *
 * O               3      2.20904             -1.01602             -1.95579         *
 * Si              1      4.69169             -0.88789              0.98858         *
 *                                                                                  *
 ************************************************************************************
  
 +------------+-------------+-------------+-----------------+ <-- min LBFGS
 |    Step    |   lambda    |   F.delta'  |    enthalpy     | <-- min LBFGS
 +------------+-------------+-------------+-----------------+ <-- min LBFGS
 |  previous  |    0.000000 |    1.790537 |    -3191.201981 | <-- min LBFGS
 | trial step |    1.000000 |   -4.901217 |    -3189.735508 | <-- min LBFGS
 +------------+-------------+-------------+-----------------+ <-- min LBFGS
  

--------------------------------------------------------------------------------
 LBFGS: improving iteration         1 with line minimization (lambda=  0.267574)
--------------------------------------------------------------------------------
 
                           -------------------------------
                                     Cell Contents
                           -------------------------------
 
            xxxxxxxxxxxxxxxxxxxxxxxxxxxxxxxxxxxxxxxxxxxxxxxxxxxxxxxxxxxxxxxxx
            x  Element         Atom        Fractional coordinates of atoms  x
            x                 Number           u          v          w      x
            x---------------------------------------------------------------x
            x  H                 1         0.444816   0.478068   0.520132   x
            x  H                 2         0.515222   0.552131   0.523225   x
            x  H                 3         0.391594   0.489662   0.573690   x
            x  H                 4         0.462364   0.562822   0.576817   x
            x  H                 5         0.291935   0.614592   0.488474   x
            x  H                 6         0.419766   0.599386   0.484137   x
            x  H                 7         0.242947   0.518905   0.467177   x
            x  H                 8         0.332775   0.469644   0.484089   x
            x  H                 9         0.375130   0.559204   0.430494   x
            x  H                10         0.348456   0.474863   0.428633   x
            x  H                11         0.638901   0.560892   0.463144   x
            x  H                12         0.562911   0.453074   0.401209   x
            x  H                13         0.586763   0.396107   0.463556   x
            x  H                14         0.296373   0.541345   0.531767   x
            x  H                15         0.363136   0.609807   0.534835   x
            x  H                16         0.547169   0.426436   0.563036   x
            x  H                17         0.617728   0.499154   0.566091   x
            x  H                18         0.623510   0.435394   0.613414   x
            x  H                19         0.492412   0.438402   0.616364   x
            x  H                20         0.563427   0.511576   0.619434   x
            x  C                 1         0.450989   0.525005   0.532093   x
            x  C                 2         0.458525   0.514935   0.565439   x
            x  C                 3         0.349378   0.577196   0.491084   x
            x  C                 4         0.322622   0.516467   0.472264   x
            x  C                 5         0.382311   0.512739   0.442934   x
            x  C                 6         0.550036   0.474538   0.574090   x
            x  C                 7         0.557682   0.464468   0.607696   x
            x  N                 1         0.359110   0.564903   0.524073   x
            x  O                 1         0.579869   0.486997   0.415993   x
            x  O                 2         0.524847   0.421279   0.466115   x
            x  O                 3         0.569651   0.550392   0.468078   x
            x  Si                1         0.516175   0.491756   0.447343   x
            xxxxxxxxxxxxxxxxxxxxxxxxxxxxxxxxxxxxxxxxxxxxxxxxxxxxxxxxxxxxxxxxx
 
 
------------------------------------------------------------------------ <-- SCF
SCF loop      Energy                           Energy gain       Timer   <-- SCF
                                               per atom          (sec)   <-- SCF
------------------------------------------------------------------------ <-- SCF
Initial  -3.20947381E+003                                        113.85  <-- SCF
      1  -3.18965702E+003                   -6.19274510E-001     114.67  <-- SCF
      2  -3.19077508E+003                    3.49392590E-002     115.78  <-- SCF
      3  -3.19041573E+003                   -1.12297215E-002     116.81  <-- SCF
      4  -3.19049585E+003                    2.50386467E-003     117.91  <-- SCF
      5  -3.19052662E+003                    9.61464465E-004     118.93  <-- SCF
      6  -3.19052787E+003                    3.90902283E-005     119.96  <-- SCF
      7  -3.19052820E+003                    1.03513508E-005     120.84  <-- SCF
      8  -3.19052841E+003                    6.54792897E-006     121.63  <-- SCF
      9  -3.19052880E+003                    1.23093290E-005     122.48  <-- SCF
     10  -3.19052920E+003                    1.22953198E-005     123.26  <-- SCF
     11  -3.19052947E+003                    8.40656440E-006     124.04  <-- SCF
     12  -3.19052991E+003                    1.39466219E-005     124.83  <-- SCF
     13  -3.19053006E+003                    4.51767517E-006     125.62  <-- SCF
     14  -3.19053032E+003                    8.32885390E-006     126.40  <-- SCF
     15  -3.19053045E+003                    3.94523432E-006     127.20  <-- SCF
     16  -3.19053066E+003                    6.71664877E-006     127.99  <-- SCF
     17  -3.19053072E+003                    1.67295244E-006     128.83  <-- SCF
     18  -3.19053086E+003                    4.46641558E-006     129.63  <-- SCF
     19  -3.19053092E+003                    1.73169719E-006     130.43  <-- SCF
     20  -3.19053102E+003                    3.36722180E-006     131.23  <-- SCF
     21  -3.19053107E+003                    1.29195955E-006     132.03  <-- SCF
     22  -3.19053114E+003                    2.36185499E-006     132.83  <-- SCF
     23  -3.19053118E+003                    1.19594311E-006     133.63  <-- SCF
     24  -3.19053123E+003                    1.46189507E-006     134.44  <-- SCF
     25  -3.19053126E+003                    9.86070339E-007     135.24  <-- SCF
     26  -3.19053127E+003                    4.16948028E-007     136.05  <-- SCF
------------------------------------------------------------------------ <-- SCF
 
Final energy =  -3190.531271124     eV
(energy not corrected for finite basis set)
 
(SEDC) Total Energy Correction : -0.817610E+00 eV

Dispersion corrected final energy* =  -3191.348881536     eV
 
 ************************************** Forces **************************************
 *                                                                                  *
 *                           Cartesian components (eV/A)                            *
 * -------------------------------------------------------------------------------- *
 *                         x                    y                    z              *
 *                                                                                  *
 * H               1      0.03987              0.12313             -0.03024         *
 * H               2     -0.23329             -0.04849             -0.09716         *
 * H               3     -0.03857              0.03442              0.03365         *
 * H               4     -0.03563              0.02513             -0.00467         *
 * H               5     -0.13480              0.08827              0.05537         *
 * H               6      0.10198             -0.14438              0.06815         *
 * H               7     -0.02643             -0.01375             -0.03604         *
 * H               8      0.10790              0.12503              0.25326         *
 * H               9      0.08885             -0.10137              0.03228         *
 * H              10      0.05097              0.07236              0.07994         *
 * H              11     -0.62237             -0.10221              0.07773         *
 * H              12      0.18392              0.59277              0.57376         *
 * H              13     -0.71920              0.46533              0.07578         *
 * H              14      0.16375              0.03800              0.04702         *
 * H              15     -0.05353             -0.32818             -0.09617         *
 * H              16     -0.03226              0.03078             -0.07623         *
 * H              17     -0.03738              0.04262             -0.05917         *
 * H              18     -0.01664              0.01819             -0.04826         *
 * H              19     -0.00986             -0.01119             -0.02108         *
 * H              20     -0.03099              0.00657              0.00007         *
 * C               1      0.01997             -0.04541              0.11736         *
 * C               2     -0.05010              0.01840              0.10539         *
 * C               3     -0.05493              0.12094             -0.33137         *
 * C               4     -0.05592             -0.08485             -0.00829         *
 * C               5     -0.21267              0.05578              0.09896         *
 * C               6      0.08442             -0.04475              0.04710         *
 * C               7     -0.04631              0.02655              0.01165         *
 * N               1      0.41504             -0.12792             -0.07129         *
 * O               1     -0.37940             -0.38560             -0.26396         *
 * O               2      0.18836             -0.10650             -0.23764         *
 * O               3      0.34935             -0.00241             -0.50540         *
 * Si              1      0.99591             -0.33727              0.20952         *
 *                                                                                  *
 ************************************************************************************
  
 +------------+-------------+-------------+-----------------+ <-- min LBFGS
 |    Step    |   lambda    |   F.delta'  |    enthalpy     | <-- min LBFGS
 +------------+-------------+-------------+-----------------+ <-- min LBFGS
 |  previous  |    0.000000 |    1.790537 |    -3191.201981 | <-- min LBFGS
 | trial step |    1.000000 |   -4.901217 |    -3189.735508 | <-- min LBFGS
 |  line step |    0.267574 |   -0.355003 |    -3191.348882 | <-- min LBFGS
 +------------+-------------+-------------+-----------------+ <-- min LBFGS
  
 LBFGS: finished iteration     1 with enthalpy= -3.19134888E+003 eV
  
 +-----------+-----------------+-----------------+------------+-----+ <-- LBFGS
 | Parameter |      value      |    tolerance    |    units   | OK? | <-- LBFGS
 +-----------+-----------------+-----------------+------------+-----+ <-- LBFGS
 |  dE/ion   |   4.590633E-003 |   2.000000E-005 |         eV | No  | <-- LBFGS
 |  |F|max   |   1.072146E+000 |   5.000000E-002 |       eV/A | No  | <-- LBFGS
 |  |dR|max  |   6.573809E-002 |   2.000000E-003 |          A | No  | <-- LBFGS
 +-----------+-----------------+-----------------+------------+-----+ <-- LBFGS
  

================================================================================
 Starting LBFGS iteration          2 ...
================================================================================
  
 +------------+-------------+-------------+-----------------+ <-- min LBFGS
 |    Step    |   lambda    |   F.delta'  |    enthalpy     | <-- min LBFGS
 +------------+-------------+-------------+-----------------+ <-- min LBFGS
 |  previous  |    0.000000 |    0.621392 |    -3191.348882 | <-- min LBFGS
 +------------+-------------+-------------+-----------------+ <-- min LBFGS
  

--------------------------------------------------------------------------------
 LBFGS: starting iteration         2 with trial guess (lambda=  1.000000)
--------------------------------------------------------------------------------
 
                           -------------------------------
                                     Cell Contents
                           -------------------------------
 
            xxxxxxxxxxxxxxxxxxxxxxxxxxxxxxxxxxxxxxxxxxxxxxxxxxxxxxxxxxxxxxxxx
            x  Element         Atom        Fractional coordinates of atoms  x
            x                 Number           u          v          w      x
            x---------------------------------------------------------------x
            x  H                 1         0.445335   0.478001   0.519935   x
            x  H                 2         0.513642   0.551120   0.522751   x
            x  H                 3         0.390994   0.489435   0.573501   x
            x  H                 4         0.461725   0.562502   0.576534   x
            x  H                 5         0.293785   0.613589   0.488319   x
            x  H                 6         0.422256   0.597652   0.484094   x
            x  H                 7         0.245522   0.518202   0.467763   x
            x  H                 8         0.335773   0.469671   0.485232   x
            x  H                 9         0.378614   0.558395   0.431556   x
            x  H                10         0.351479   0.475189   0.430012   x
            x  H                11         0.636314   0.563085   0.462264   x
            x  H                12         0.562703   0.457595   0.402373   x
            x  H                13         0.575829   0.398298   0.464177   x
            x  H                14         0.299419   0.538712   0.531740   x
            x  H                15         0.366256   0.607273   0.534535   x
            x  H                16         0.546026   0.426830   0.562375   x
            x  H                17         0.616340   0.499332   0.565450   x
            x  H                18         0.621442   0.435939   0.612656   x
            x  H                19         0.490950   0.438677   0.615731   x
            x  H                20         0.561575   0.511733   0.618837   x
            x  C                 1         0.451201   0.524088   0.532138   x
            x  C                 2         0.457906   0.514578   0.565250   x
            x  C                 3         0.351286   0.576608   0.490436   x
            x  C                 4         0.324707   0.515556   0.472908   x
            x  C                 5         0.384898   0.512560   0.444202   x
            x  C                 6         0.549471   0.474429   0.573572   x
            x  C                 7         0.555918   0.464802   0.607154   x
            x  N                 1         0.364583   0.561632   0.523399   x
            x  O                 1         0.578701   0.490243   0.416462   x
            x  O                 2         0.515649   0.422082   0.466713   x
            x  O                 3         0.568869   0.552784   0.466991   x
            x  Si                1         0.519361   0.491549   0.447859   x
            xxxxxxxxxxxxxxxxxxxxxxxxxxxxxxxxxxxxxxxxxxxxxxxxxxxxxxxxxxxxxxxxx
 
 
------------------------------------------------------------------------ <-- SCF
SCF loop      Energy                           Energy gain       Timer   <-- SCF
                                               per atom          (sec)   <-- SCF
------------------------------------------------------------------------ <-- SCF
Initial  -3.20925911E+003                                        137.41  <-- SCF
      1  -3.18994640E+003                   -6.03522402E-001     138.29  <-- SCF
      2  -3.19045935E+003                    1.60297727E-002     139.46  <-- SCF
      3  -3.19029412E+003                   -5.16355891E-003     140.48  <-- SCF
      4  -3.19038537E+003                    2.85178344E-003     141.52  <-- SCF
      5  -3.19038954E+003                    1.30179932E-004     142.69  <-- SCF
      6  -3.19039038E+003                    2.63517065E-005     143.64  <-- SCF
      7  -3.19039039E+003                    1.68245025E-007     144.47  <-- SCF
      8  -3.19039030E+003                   -2.75826592E-006     145.36  <-- SCF
      9  -3.19039036E+003                    1.78646644E-006     146.17  <-- SCF
     10  -3.19039056E+003                    6.42875953E-006     146.96  <-- SCF
     11  -3.19039113E+003                    1.77561900E-005     147.77  <-- SCF
     12  -3.19039141E+003                    8.59055230E-006     148.56  <-- SCF
     13  -3.19039191E+003                    1.57245629E-005     149.34  <-- SCF
     14  -3.19039217E+003                    8.17666768E-006     150.13  <-- SCF
     15  -3.19039242E+003                    7.90179012E-006     150.92  <-- SCF
     16  -3.19039253E+003                    3.33596435E-006     151.72  <-- SCF
     17  -3.19039265E+003                    3.79800943E-006     152.51  <-- SCF
     18  -3.19039275E+003                    2.91340805E-006     153.30  <-- SCF
     19  -3.19039284E+003                    3.07828408E-006     154.10  <-- SCF
     20  -3.19039291E+003                    2.02651990E-006     154.90  <-- SCF
     21  -3.19039295E+003                    1.33017561E-006     155.70  <-- SCF
[...]
 * H              17      0.00069             -0.00090              0.00055         *
 * H              18      0.00373             -0.00044              0.00531         *
 * H              19     -0.00286             -0.00388              0.00304         *
 * H              20     -0.00188              0.00475             -0.00063         *
 * C               1     -0.00936              0.00825             -0.01689         *
 * C               2      0.00806             -0.00269              0.00689         *
 * C               3     -0.00259              0.00568              0.00234         *
 * C               4     -0.00255              0.00729             -0.00324         *
 * C               5      0.00796             -0.00310              0.01452         *
 * C               6     -0.01488              0.00955             -0.00758         *
 * C               7      0.00910             -0.00311              0.00443         *
 * N               1      0.00403              0.00008              0.00322         *
 * O               1      0.00344              0.00367             -0.00023         *
 * O               2      0.00731             -0.02184              0.01378         *
 * O               3      0.00281             -0.00140              0.00659         *
 * Si              1     -0.00598              0.00551             -0.01458         *
 *                                                                                  *
 ************************************************************************************
 
 Pseudo atomic calculation performed for H 1s1
 
 Converged in 13 iterations to a total energy of -12.4790 eV
 
 Pseudo atomic calculation performed for C 2s2 2p2
 
 Converged in 17 iterations to a total energy of -148.5208 eV
 
 Pseudo atomic calculation performed for N 2s2 2p3
 
 Converged in 21 iterations to a total energy of -268.1820 eV
 
 Pseudo atomic calculation performed for O 2s2 2p4
 
 Converged in 23 iterations to a total energy of -432.6536 eV
 
 Pseudo atomic calculation performed for Si 3s2 3p2
 
 Converged in 11 iterations to a total energy of -165.0683 eV
Charge spilling parameter for spin component 1 = 1.54%
 
            Orbital Populations       
     Ion    Atom   Orbital             Charge
  -------------------------------------------
      H     1      S                    0.702
      H     2      S                    0.686
      H     3      S                    0.735
      H     4      S                    0.737
      H     5      S                    0.682
      H     6      S                    0.693
      H     7      S                    0.703
      H     8      S                    0.743
      H     9      S                    0.713
      H    10      S                    0.699
      H    11      S                    0.460
      H    12      S                    0.450
      H    13      S                    0.466
      H    14      S                    0.513
      H    15      S                    0.505
      H    16      S                    0.729
      H    17      S                    0.730
      H    18      S                    0.704
      H    19      S                    0.727
      H    20      S                    0.726
      C     1      S                    1.291
      C     1      Px                   0.923
      C     1      Py                   1.112
      C     1      Pz                   1.059
      C     2      S                    1.296
      C     2      Px                   1.115
      C     2      Py                   1.160
      C     2      Pz                   0.950
      C     3      S                    1.304
      C     3      Px                   1.257
      C     3      Py                   1.119
      C     3      Pz                   0.728
      C     4      S                    1.298
      C     4      Px                   1.171
      C     4      Py                   1.026
      C     4      Pz                   1.028
      C     5      S                    1.409
      C     5      Px                   1.238
      C     5      Py                   1.250
      C     5      Pz                   1.074
      C     6      S                    1.304
      C     6      Px                   1.041
      C     6      Py                   1.133
      C     6      Pz                   1.031
      C     7      S                    1.400
      C     7      Px                   1.216
      C     7      Py                   1.207
      C     7      Pz                   0.973
      N     1      S                    1.589
      N     1      Px                   1.352
      N     1      Py                   1.393
      N     1      Pz                   1.304
      O     1      S                    1.851
      O     1      Px                   1.847
      O     1      Py                   1.798
      O     1      Pz                   1.597
      O     2      S                    1.856
      O     2      Px                   1.720
      O     2      Py                   1.691
      O     2      Pz                   1.830
      O     3      S                    1.857
      O     3      Px                   1.666
      O     3      Py                   1.748
      O     3      Pz                   1.843
     Si     1      S                    0.736
     Si     1      Px                   0.446
     Si     1      Py                   0.343
     Si     1      Pz                   0.317
  -------------------------------------------
                           Total:      74.000
  -------------------------------------------
 
     Atomic Populations (Mulliken)
     -----------------------------
Species          Ion     s       p       d       f      Total   Charge (e)
==========================================================================
  H               1     0.702   0.000   0.000   0.000   0.702     0.298
  H               2     0.686   0.000   0.000   0.000   0.686     0.314
  H               3     0.735   0.000   0.000   0.000   0.735     0.265
  H               4     0.737   0.000   0.000   0.000   0.737     0.263
  H               5     0.682   0.000   0.000   0.000   0.682     0.318
  H               6     0.693   0.000   0.000   0.000   0.693     0.307
  H               7     0.703   0.000   0.000   0.000   0.703     0.297
  H               8     0.743   0.000   0.000   0.000   0.743     0.257
  H               9     0.713   0.000   0.000   0.000   0.713     0.287
  H              10     0.699   0.000   0.000   0.000   0.699     0.301
  H              11     0.460   0.000   0.000   0.000   0.460     0.540
  H              12     0.450   0.000   0.000   0.000   0.450     0.550
  H              13     0.466   0.000   0.000   0.000   0.466     0.534
  H              14     0.513   0.000   0.000   0.000   0.513     0.487
  H              15     0.505   0.000   0.000   0.000   0.505     0.495
  H              16     0.729   0.000   0.000   0.000   0.729     0.271
  H              17     0.730   0.000   0.000   0.000   0.730     0.270
  H              18     0.704   0.000   0.000   0.000   0.704     0.296
  H              19     0.727   0.000   0.000   0.000   0.727     0.273
  H              20     0.726   0.000   0.000   0.000   0.726     0.274
  C               1     1.291   3.094   0.000   0.000   4.385    -0.385
  C               2     1.296   3.225   0.000   0.000   4.521    -0.521
  C               3     1.304   3.104   0.000   0.000   4.408    -0.408
  C               4     1.298   3.224   0.000   0.000   4.523    -0.523
  C               5     1.409   3.562   0.000   0.000   4.971    -0.971
  C               6     1.304   3.205   0.000   0.000   4.509    -0.509
  C               7     1.400   3.395   0.000   0.000   4.795    -0.795
  N               1     1.589   4.049   0.000   0.000   5.639    -0.639
  O               1     1.851   5.243   0.000   0.000   7.094    -1.094
  O               2     1.856   5.241   0.000   0.000   7.097    -1.097
  O               3     1.857   5.257   0.000   0.000   7.114    -1.114
  Si              1     0.736   1.106   0.000   0.000   1.842     2.158
==========================================================================
 
                 Bond                   Population      Length (A)
======================================================================
              H 12 -- O 1                    0.53        0.96764
              H 11 -- O 3                    0.53        0.97036
              H 13 -- O 2                    0.53        0.97051
              H 15 -- N 1                    0.67        1.02862
              H 14 -- N 1                    0.67        1.02959
              H 18 -- C 7                    0.81        1.09712
              H 6  -- C 3                    0.86        1.09736
              H 2  -- C 1                    0.86        1.09752
              H 5  -- C 3                    0.84        1.09757
              H 1  -- C 1                    0.87        1.09816
              H 19 -- C 7                    0.81        1.09880
              H 20 -- C 7                    0.81        1.09979
              H 7  -- C 4                    0.85        1.10026
              H 10 -- C 5                    0.81        1.10056
              H 8  -- C 4                    0.86        1.10145
              H 17 -- C 6                    0.84        1.10146
              H 16 -- C 6                    0.84        1.10161
              H 9  -- C 5                    0.82        1.10183
              H 3  -- C 2                    0.85        1.10392
              H 4  -- C 2                    0.85        1.10421
               C 3 -- N 1                    0.50        1.51298
               C 1 -- N 1                    0.50        1.51455
               C 1 -- C 2                    0.72        1.51741
               C 6 -- C 7                    0.65        1.52745
               C 2 -- C 6                    0.68        1.53207
               C 3 -- C 4                    0.68        1.53485
               C 4 -- C 5                    0.64        1.54135
               O 1 -- Si 1                   0.52        1.63850
              H 14 -- H 15                  -0.12        1.64310
               O 2 -- Si 1                   0.49        1.65400
               O 3 -- Si 1                   0.47        1.66279
              H 9  -- H 10                  -0.09        1.75773
              H 7  -- H 8                   -0.13        1.76484
              H 16 -- H 17                  -0.12        1.76773
              H 1  -- H 2                   -0.11        1.77051
              H 18 -- H 19                  -0.10        1.77106
              H 3  -- H 4                   -0.12        1.77432
              H 18 -- H 20                  -0.10        1.77533
              H 19 -- H 20                  -0.10        1.77951
              H 5  -- H 6                   -0.11        1.78759
               C 5 -- Si 1                   0.62        1.87662
              H 15 -- C 1                   -0.13        2.07212
              H 14 -- C 1                   -0.12        2.08427
              H 6  -- N 1                   -0.11        2.08912
              H 15 -- C 3                   -0.13        2.09418
              H 2  -- N 1                   -0.11        2.09911
              H 14 -- C 3                   -0.12        2.09952
              H 5  -- N 1                   -0.11        2.10783
              H 1  -- N 1                   -0.10        2.11481
              H 4  -- C 1                   -0.14        2.15544
              H 17 -- C 2                   -0.14        2.15630
              H 16 -- C 2                   -0.14        2.15914
              H 4  -- C 6                   -0.12        2.16060
              H 3  -- C 1                   -0.14        2.16155
              H 7  -- C 3                   -0.14        2.16161
              H 8  -- C 5                   -0.13        2.16265
              H 10 -- C 4                   -0.12        2.16333
              H 3  -- C 6                   -0.12        2.16449
              H 17 -- C 7                   -0.13        2.16886
              H 8  -- C 3                   -0.12        2.16971
              H 16 -- C 7                   -0.13        2.17159
              H 1  -- H 8                   -0.04        2.17224
              H 19 -- C 6                   -0.12        2.17661
              H 20 -- C 6                   -0.12        2.17996
              H 18 -- C 6                   -0.11        2.18015
              H 7  -- C 5                   -0.13        2.18400
              H 9  -- C 4                   -0.12        2.18457
              H 2  -- C 2                   -0.12        2.19223
              H 6  -- C 4                   -0.11        2.19283
              H 1  -- C 2                   -0.12        2.19541
              H 5  -- C 4                   -0.12        2.19852
              H 11 -- Si 1                  -0.13        2.25234
              H 13 -- Si 1                  -0.14        2.28098
              H 5  -- H 15                  -0.04        2.28845
              H 12 -- Si 1                  -0.12        2.30399
              H 2  -- H 6                   -0.02        2.33311
              H 5  -- H 7                   -0.07        2.33494
              H 6  -- O 3                    0.01        2.33788
              H 4  -- H 15                  -0.01        2.39652
              H 1  -- H 14                  -0.03        2.40860
              H 2  -- H 15                  -0.03        2.41455
              H 7  -- H 10                  -0.04        2.42990
              H 8  -- H 14                  -0.01        2.44205
              H 10 -- Si 1                  -0.11        2.44977
              H 6  -- H 15                  -0.02        2.46698
              H 9  -- Si 1                  -0.13        2.47148
              H 3  -- H 14                  -0.01        2.48036
               C 2 -- N 1                   -0.14        2.48303
              H 5  -- H 14                  -0.02        2.49418
              H 16 -- H 18                  -0.03        2.49879
              H 4  -- H 17                  -0.03        2.49896
              H 17 -- H 20                  -0.03        2.51031
              H 3  -- H 16                  -0.03        2.51336
              H 8  -- N 1                   -0.05        2.51344
               C 4 -- N 1                   -0.13        2.52150
               C 1 -- C 6                   -0.14        2.52456
               C 2 -- C 7                   -0.16        2.53143
              H 2  -- H 4                   -0.03        2.53160
              H 3  -- H 19                  -0.01        2.53644
              H 17 -- H 18                  -0.03        2.53667
              H 8  -- H 10                  -0.02        2.53814
              H 1  -- H 3                   -0.03        2.54630
              H 16 -- H 19                  -0.03        2.54857
               C 3 -- C 5                   -0.15        2.55337
               C 1 -- C 3                   -0.13        2.55379
              H 11 -- O 1                   -0.01        2.57711
              H 7  -- H 9                   -0.03        2.58091
              H 6  -- C 5                   -0.06        2.58826
              H 4  -- H 20                  -0.01        2.58891
              H 2  -- H 17                  -0.01        2.59037
              H 1  -- H 16                  -0.01        2.59790
              H 1  -- O 2                    0.00        2.59891
               O 1 -- O 3                   -0.08        2.60532
              H 15 -- C 2                   -0.04        2.61528
              H 2  -- O 3                    0.00        2.62177
              H 6  -- H 9                   -0.01        2.62913
              H 6  -- C 1                   -0.05        2.64596
              H 14 -- C 4                   -0.04        2.65597
              H 14 -- C 2                   -0.03        2.67852
              H 8  -- O 2                   -0.00        2.68226
               O 2 -- O 3                   -0.08        2.69741
              H 2  -- C 3                   -0.04        2.70418
              H 4  -- N 1                   -0.03        2.70741
              H 3  -- N 1                   -0.03        2.72310
              H 17 -- C 1                   -0.04        2.74269
              H 16 -- C 1                   -0.04        2.74506
              H 4  -- C 7                   -0.04        2.75476
              H 3  -- C 7                   -0.04        2.75510
              H 9  -- C 3                   -0.04        2.76352
              H 19 -- C 2                   -0.04        2.77064
               C 5 -- O 2                   -0.11        2.77337
              H 1  -- C 3                   -0.02        2.77382
               O 1 -- O 2                   -0.07        2.78321
              H 6  -- H 8                    0.00        2.80916
              H 8  -- C 1                   -0.03        2.80945
              H 20 -- C 2                   -0.03        2.81870
              H 2  -- C 6                   -0.03        2.82390
              H 1  -- C 6                   -0.03        2.82862
              H 1  -- C 4                   -0.02        2.84965
               C 4 -- Si 1                  -0.13        2.87472
               C 5 -- O 3                   -0.09        2.90544
              H 3  -- H 15                  -0.00        2.94096
              H 1  -- H 6                   -0.00        2.94593
              H 6  -- Si 1                  -0.03        2.94883
              H 7  -- H 14                   0.00        2.94946
              H 6  -- H 14                   0.03        2.95056
              H 2  -- H 14                   0.03        2.95162
              H 1  -- H 15                   0.03        2.95447
               C 5 -- O 1                   -0.08        2.96425
              H 8  -- Si 1                  -0.06        2.98308
              H 5  -- H 8                    0.03        2.99908
======================================================================
 
 
     Hirshfeld Analysis
     ------------------
Species   Ion     Hirshfeld Charge (e)
======================================
  H        1                 0.05
  H        2                 0.06
  H        3                 0.05
  H        4                 0.05
  H        5                 0.07
  H        6                 0.05
  H        7                 0.05
  H        8                 0.04
  H        9                 0.05
  H       10                 0.06
  H       11                 0.17
  H       12                 0.18
  H       13                 0.17
  H       14                 0.18
  H       15                 0.18
  H       16                 0.04
  H       17                 0.04
  H       18                 0.05
  H       19                 0.05
  H       20                 0.05
  C        1                 0.01
  C        2                -0.06
  C        3                 0.01
  C        4                -0.05
  C        5                -0.14
  C        6                -0.05
  C        7                -0.10
  N        1                 0.04
  O        1                -0.28
  O        2                -0.27
  O        3                -0.28
  Si       1                 0.48
======================================
 

Writing analysis data to Conf_0014.castep_bin

Writing model to Conf_0014.check
 
 A BibTeX formatted list of references used in this run has been written to 
 Conf_0014.bib
 
Initialisation time =     25.49 s
Calculation time    =    642.20 s
Finalisation time   =      1.17 s
Total time          =    668.86 s
Peak Memory Use     = 7916344 kB
 
Overall parallel efficiency rating: Satisfactory (66%)
 
Data was distributed by:-
G-vector (48-way); efficiency rating: Satisfactory (66%)
High Water Mark     = 1765500 kB
