 Job started on host drago31040137.mgmt.cc.csic.es
 at Sun Mar 31 00:50:16 2024

 +-------------------------------------------------+
 |                                                 |
 |      CCC   AA    SSS  TTTTT  EEEEE  PPPP        |
 |     C     A  A  S       T    E      P   P       |
 |     C     AAAA   SS     T    EEE    PPPP        |
 |     C     A  A     S    T    E      P           |
 |      CCC  A  A  SSS     T    EEEEE  P           |
 |                                                 |
 +-------------------------------------------------+
 |                                                 |
 | Materials Studio CASTEP version 2024            |
 | Ab Initio Total Energy Program                  |
 |                                                 |
 | Authors:                                        |
 | M. Segall, M. Probert, C. Pickard, P. Hasnip,   |
 | S. Clark, K. Refson, J. R. Yates,               |
 | A. Bartok-Partay, M. Payne                      |
 |                                                 |
 | Contributors:                                   |
 | P. Lindan, P. Haynes, J. White, V. Milman,      |
 | N. Govind, M. Gibson, P. Tulip, V. Cocula,      |
 | B. Montanari, D. Quigley, M. Glover,            |
 | L. Bernasconi, A. Perlov, M. Plummer,           |
 | E. McNellis, J. Meyer, J. Gale, D. Jochym       |
 | J. Aarons, B. Walker, R. Gillen, D. Jones       |
 | T. Green, I. J. Bush, C. J. Armstrong,          |
 | E. J. Higgins, E. L. Brown, M. S. McFly,        |
 | J. Wilkins, B-C. Shih, P. J. P. Byrne,          |
 | R. J. Maurer, J. C. Womack, J. Dziedzic,        |
 | L. LeBlanc, T. K. Stenczel, J. Kermode,         |
 | S. Sturniolo, B. Shi, B. Durham, M. Evans,      |
 | M. J. Smith, A. Tamerus, Z. Hawkhead,           |
 | V. Ravindran, T. Hollins, S. A. Joyce,          |
 | R. T. Strong, A. M. Reilly                      |
 |                                                 |
 | Copyright (c) 2000 - 2023                       |
 |                                                 |
 | Please cite                                     |
 |                                                 |
 |     "First principles methods using CASTEP"     |
 |                                                 |
 |         Zeitschrift fuer Kristallographie       |
 |           220(5-6) pp. 567-570 (2005)           |
 |                                                 |
 | S. J. Clark, M. D. Segall, C. J. Pickard,       |
 | P. J. Hasnip, M. J. Probert, K. Refson,         |
 | M. C. Payne                                     |
 |                                                 |
 |       in all publications arising from          |
 |              your use of CASTEP                 |
 |                                                 |
 +-------------------------------------------------+
 |                                                 |
 |              http://www.castep.org              |
 |                                                 |
 +-------------------------------------------------+
 
 
 This version was compiled for x86_64-rhel7-intel19.0 on Oct 24 2023
 Code version:    a9f326b
 Intel(R) Math Kernel Library Version 2019.0.4 
 Fundamental constants values: CODATA 2018
 
License checkout of MS_castep successful
 
 
 Atomic calculation performed for H: 1s1
 
 Converged in 41 iterations to an ae energy of -12.488 eV
 
 Identity difference: 2.63E-05
 
   ============================================================                
   | Pseudopotential Report - Date of generation 31-03-2024   |                
   ------------------------------------------------------------                
   | Element: H Ionic charge:  1.00 Level of theory: PBE      |                
   | Atomic Solver: Koelling-Harmon                           |                
   |                                                          |                
   |               Reference Electronic Structure             |                
   |         Orbital         Occupation         Energy        |                
   |            1s              1.000           -0.239        |                
   |                                                          |                
   |                 Pseudopotential Definition               |                
   |        Beta     l      e      Rc     scheme   norm       |                
   |          1      0   -0.239   0.599     qc      0         |                
   |          2      0    0.250   0.599     qc      0         |                
   |         loc     1    0.000   0.599     pn      0         |                
   |                                                          |                
   | Augmentation charge Rinner = 0.421                       |                
   | No partial core correction                               |                
   ------------------------------------------------------------                
   | "1|0.6|9|10|15|10UU(qc=8)[]"                             |                
   ------------------------------------------------------------                
   |      Author: Chris J. Pickard, Cambridge University      |                
   ============================================================                
 
 Doing a self consistent calculation for the test configuration
 
 Atomic calculation performed for H: 1s1
 
 Converged in 41 iterations to an ae energy of -12.488 eV
 
 ---------------------------------------
 AE eigenvalue nl 10 =       -0.23860176
 ---------------------------------------
 PS eigenvalue nl 10 =       -0.23857601
 ---------------------------------------
 Maximum eigenvalue error:   2.57E-05
 
 Derived cutoff energies: C=   1 M=   6 F=  10 E=  20
 
 Checking for ghost states up to   1.51185 Ha
 
 No Ghost States Identified
 
 ***************************************
 
 Atomic calculation performed for C: 1s2 2s2 2p2
 
 Converged in 54 iterations to an ae energy of -1027.632 eV
 
 Identity difference: 2.37E-04
 
   ============================================================                
   | Pseudopotential Report - Date of generation 31-03-2024   |                
   ------------------------------------------------------------                
   | Element: C Ionic charge:  4.00 Level of theory: PBE      |                
   | Atomic Solver: Koelling-Harmon                           |                
   |                                                          |                
   |               Reference Electronic Structure             |                
   |         Orbital         Occupation         Energy        |                
   |            2s              2.000           -0.505        |                
   |            2p              2.000           -0.194        |                
   |                                                          |                
   |                 Pseudopotential Definition               |                
   |        Beta     l      e      Rc     scheme   norm       |                
   |          1      0   -0.505   1.395     qc      0         |                
   |          2      0    0.250   1.395     qc      0         |                
   |          3      1   -0.194   1.395     qc      0         |                
   |          4      1    0.250   1.395     qc      0         |                
   |         loc     2    0.000   1.395     pn      0         |                
   |                                                          |                
   | Augmentation charge Rinner = 0.983                       |                
   | Partial core correction Rc = 0.983                       |                
   ------------------------------------------------------------                
   | "2|1.4|11|12|14.7|20UU:21UU(qc=7)[]"                     |                
   ------------------------------------------------------------                
   |      Author: Chris J. Pickard, Cambridge University      |                
   ============================================================                
 
 Doing a self consistent calculation for the test configuration
 
 Atomic calculation performed for C: 1s2 2s2 2p2
 
 Converged in 54 iterations to an ae energy of -1027.632 eV
 
 ---------------------------------------
 AE eigenvalue nl 10 =      -10.04653081
 AE eigenvalue nl 20 =       -0.50533429
 AE eigenvalue nl 21 =       -0.19423807
 ---------------------------------------
 PS eigenvalue nl 20 =       -0.50531853
 PS eigenvalue nl 21 =       -0.19422214
 ---------------------------------------
 Maximum eigenvalue error:   1.59E-05
 
 Derived cutoff energies: C=   6 M=  10 F=  12 E=  16
 
 Checking for ghost states up to   1.47183 Ha
 
 No Ghost States Identified
 
 ***************************************
 
 Atomic calculation performed for N: 1s2 2s2 2p3
 
 Converged in 55 iterations to an ae energy of -1481.742 eV
 
 Identity difference: 2.27E-04
 
   ============================================================                
   | Pseudopotential Report - Date of generation 31-03-2024   |                
   ------------------------------------------------------------                
   | Element: N Ionic charge:  5.00 Level of theory: PBE      |                
   | Atomic Solver: Koelling-Harmon                           |                
   |                                                          |                
   |               Reference Electronic Structure             |                
   |         Orbital         Occupation         Energy        |                
   |            2s              2.000           -0.683        |                
   |            2p              3.000           -0.261        |                
   |                                                          |                
   |                 Pseudopotential Definition               |                
   |        Beta     l      e      Rc     scheme   norm       |                
   |          1      0   -0.683   1.100     qc      0         |                
   |          2      0    0.250   1.100     qc      0         |                
   |          3      1   -0.261   1.100     qc      0         |                
   |          4      1    0.250   1.100     qc      0         |                
   |         loc     2    0.000   1.100     pn      0         |                
   |                                                          |                
   | Augmentation charge Rinner = 0.769                       |                
   | Partial core correction Rc = 0.769                       |                
   ------------------------------------------------------------                
   | "2|1.1|12|16|19|20UU:21UU(qc=7)[]"                       |                
   ------------------------------------------------------------                
   |      Author: Chris J. Pickard, Cambridge University      |                
   ============================================================                
 
 Doing a self consistent calculation for the test configuration
 
 Atomic calculation performed for N: 1s2 2s2 2p3
 
 Converged in 55 iterations to an ae energy of -1481.742 eV
 
 ---------------------------------------
 AE eigenvalue nl 10 =      -14.13820921
 AE eigenvalue nl 20 =       -0.68290611
 AE eigenvalue nl 21 =       -0.26054797
 ---------------------------------------
 PS eigenvalue nl 20 =       -0.68291221
 PS eigenvalue nl 21 =       -0.26051708
 ---------------------------------------
 Maximum eigenvalue error:   3.09E-05
 
 Derived cutoff energies: C=  10 M=  15 F=  18 E=  23
 
 Checking for ghost states up to   1.48495 Ha
 
 No Ghost States Identified
 
 ***************************************
 
 Atomic calculation performed for O: 1s2 2s2 2p4
 
 Converged in 61 iterations to an ae energy of -2040.902 eV
 
 Identity difference: 4.10E-04
 
   ============================================================                
   | Pseudopotential Report - Date of generation 31-03-2024   |                
   ------------------------------------------------------------                
   | Element: O Ionic charge:  6.00 Level of theory: PBE      |                
   | Atomic Solver: Koelling-Harmon                           |                
   |                                                          |                
   |               Reference Electronic Structure             |                
   |         Orbital         Occupation         Energy        |                
   |            2s              2.000           -0.881        |                
   |            2p              4.000           -0.332        |                
   |                                                          |                
   |                 Pseudopotential Definition               |                
   |        Beta     l      e      Rc     scheme   norm       |                
   |          1      0   -0.881   1.100     qc      0         |                
   |          2      0    0.250   1.100     qc      0         |                
   |          3      1   -0.332   1.100     qc      0         |                
   |          4      1    0.250   1.100     qc      0         |                
   |         loc     2    0.000   1.100     pn      0         |                
   |                                                          |                
   | Augmentation charge Rinner = 0.769                       |                
   | Partial core correction Rc = 0.769                       |                
   ------------------------------------------------------------                
   | "2|1.1|14|18|21|20UU:21UU(qc=7)[]"                       |                
   ------------------------------------------------------------                
   |      Author: Chris J. Pickard, Cambridge University      |                
   ============================================================                
 
 Doing a self consistent calculation for the test configuration
 
 Atomic calculation performed for O: 1s2 2s2 2p4
 
 Converged in 61 iterations to an ae energy of -2040.902 eV
 
 ---------------------------------------
 AE eigenvalue nl 10 =      -18.91475256
 AE eigenvalue nl 20 =       -0.88057101
 AE eigenvalue nl 21 =       -0.33186952
 ---------------------------------------
 PS eigenvalue nl 20 =       -0.88059206
 PS eigenvalue nl 21 =       -0.33182157
 ---------------------------------------
 Maximum eigenvalue error:   4.80E-05
 
 Derived cutoff energies: C=  14 M=  17 F=  20 E=  22
 
 Checking for ghost states up to   1.49452 Ha
 
 No Ghost States Identified
 
 ***************************************
 
 Atomic calculation performed for Si: 1s2 2s2 2p6 3s2 3p2
 
 Converged in 54 iterations to an ae energy of -7886.857 eV
 
 Identity difference: 1.35E-04
 
   ============================================================                
   | Pseudopotential Report - Date of generation 31-03-2024   |                
   ------------------------------------------------------------                
   | Element: Si Ionic charge:  4.00 Level of theory: PBE     |                
   | Atomic Solver: Koelling-Harmon                           |                
   |                                                          |                
   |               Reference Electronic Structure             |                
   |         Orbital         Occupation         Energy        |                
   |            3s              2.000           -0.397        |                
   |            3p              2.000           -0.150        |                
   |                                                          |                
   |                 Pseudopotential Definition               |                
   |        Beta     l      e      Rc     scheme   norm       |                
   |          1      0   -0.397   1.797     qc      0         |                
   |          2      0    0.250   1.797     qc      0         |                
   |          3      1   -0.150   1.797     qc      0         |                
   |          4      1    0.250   1.797     qc      0         |                
   |          5      2    0.000   1.797     qc      0         |                
   |          6      2    0.250   1.797     qc      0         |                
   |         loc     3    0.000   1.797     pn      0         |                
   |                                                          |                
   | Augmentation charge Rinner = 1.255                       |                
   | Partial core correction Rc = 1.255                       |                
   ------------------------------------------------------------                
   | "3|1.8|3.6|5|7|30UU:31UU:32UU[]"                         |                
   ------------------------------------------------------------                
   |      Author: Chris J. Pickard, Cambridge University      |                
   ============================================================                
 
 Doing a self consistent calculation for the test configuration
 
 Atomic calculation performed for Si: 1s2 2s2 2p6 3s2 3p2
 
 Converged in 54 iterations to an ae energy of -7886.857 eV
 
 ---------------------------------------
 AE eigenvalue nl 10 =      -65.63192903
 AE eigenvalue nl 20 =       -5.12654326
 AE eigenvalue nl 21 =       -3.51173659
 AE eigenvalue nl 30 =       -0.39736430
 AE eigenvalue nl 31 =       -0.14998156
 ---------------------------------------
 PS eigenvalue nl 30 =       -0.39734922
 PS eigenvalue nl 31 =       -0.14996719
 ---------------------------------------
 Maximum eigenvalue error:   1.51E-05
 
 Derived cutoff energies: C=   1 M=   3 F=   6 E=   6
 
 Checking for ghost states up to   1.41161 Ha
 
 No Ghost States Identified
 
 ***************************************
 
 Pseudo atomic calculation performed for H 1s1
 
 Converged in 13 iterations to a total energy of -12.4790 eV
 
 Pseudo atomic calculation performed for C 2s2 2p2
 
 Converged in 17 iterations to a total energy of -148.5208 eV
 
 Pseudo atomic calculation performed for N 2s2 2p3
 
 Converged in 21 iterations to a total energy of -268.1820 eV
 
 Pseudo atomic calculation performed for O 2s2 2p4
 
 Converged in 23 iterations to a total energy of -432.6536 eV
 
 Pseudo atomic calculation performed for Si 3s2 3p2
 
 Converged in 11 iterations to a total energy of -165.0683 eV
 Calculation parallelised over 48 processes.
 Data is distributed by G-vector(48-way)

 ************************************ Title ************************************
 CASTEP calculation from BIOVIA Materials Studio 2024

 ***************************** General Parameters ******************************
  
 output verbosity                               : normal  (1)
 write checkpoint data to                       : Conf_0002.check
 type of calculation                            : geometry optimization
 stress calculation                             : off
 density difference calculation                 : off
 electron localisation func (ELF) calculation   : off
 Hirshfeld analysis                             : on
 polarisation (Berry phase) analysis            : off
 molecular orbital projected DOS                : off
 deltaSCF calculation                           : off
 unlimited duration calculation
 timing information                             : on
 memory usage estimate                          : on
 write extra output files                       : on
 write final potential to formatted file        : off
 write final density to formatted file          : off
 write BibTeX reference list                    : on
 write OTFG pseudopotential files               : on
 write electrostatic potential file             : on
 write bands file                               : on
 checkpoint writing                             : both castep_bin and check files
  
 output         length unit                     : A
 output           mass unit                     : amu
 output           time unit                     : ps
 output         charge unit                     : e
 output           spin unit                     : hbar/2
 output         energy unit                     : eV
 output          force unit                     : eV/A
 output       velocity unit                     : A/ps
 output       pressure unit                     : GPa
 output     inv_length unit                     : 1/A
 output      frequency unit                     : cm-1
 output force constant unit                     : eV/A**2
 output         volume unit                     : A**3
 output   IR intensity unit                     : (D/A)**2/amu
 output         dipole unit                     : D
 output         efield unit                     : eV/A/e
 output        entropy unit                     : J/mol/K
 output    efield chi2 unit                     : pm/V
  
 wavefunctions paging                           : none
 random number generator seed                   :    5024795
 data distribution                              : optimal for this architecture
 optimization strategy                          : balance speed and memory

 *********************** Exchange-Correlation Parameters ***********************
  
 using functional                               : Perdew Burke Ernzerhof
 relativistic treatment                         : Koelling-Harmon
 DFT+D: Semi-empirical dispersion correction    : on
 SEDC with                                      : G06 correction scheme

 ************************* Pseudopotential Parameters **************************
  
 pseudopotential representation                 : reciprocal space
 <beta|phi> representation                      : reciprocal space
 spin-orbit coupling                            : off

 **************************** Basis Set Parameters *****************************
  
 plane wave basis set cut-off                   :   600.0000   eV
 size of standard grid                          :     1.5000
 size of   fine   gmax                          :    18.8237   1/A
 largest prime factor in FFT                    :          5
 finite basis set correction                    : none

 **************************** Electronic Parameters ****************************
  
 number of  electrons                           :  74.00    
 net charge of system                           : +1.000    
 treating system as non-spin-polarized
 number of bands                                :         37

 ********************* Electronic Minimization Parameters **********************
  
 Method: Treating system as non-metallic,
         and number of  SD  steps               :          1
         and number of  CG  steps               :          4
  
 total energy / atom convergence tol.           : 0.2000E-05   eV
 eigen-energy convergence tolerance             : 0.1000E-05   eV
 max force / atom convergence tol.              : ignored
 convergence tolerance window                   :          3   cycles
 max. number of SCF cycles                      :        100
 periodic dipole correction                     : NONE

 ************************** Density Mixing Parameters **************************
  
 density-mixing scheme                          : Pulay
 max. length of mixing history                  :         20
 charge density mixing amplitude                : 0.5000    
 cut-off energy for mixing                      :  600.0       eV
 charge density mixing g-vector                 :  1.500       1/A

 *********************** Population Analysis Parameters ************************
  
 Population analysis with cutoff                :  3.000       A
 Population analysis output                     : summary and pdos components

 ********************** Geometry Optimization Parameters ***********************
  
 optimization method                            : LBFGS
 max. no. of LBFGS updates                      : unbounded
 preconditioned LBFGS is activated
 preconditioner type                            : EXP
     stabilization constant                     :     0.1000
     parameter A                                :     3.0000
     nearest neighbor distance                  : automatic
     cut-off distance                           : automatic
     parameter mu                               : automatic
 variable cell method                           : fixed basis quality
 max. number of steps                           :        300
 estimated bulk modulus                         :  500.0       GPa
 estimated <frequency>                          :  1668.       cm-1
 geom line minimiser                            : on
 with line minimiser tolerance                  :     0.4000
 total energy convergence tolerance             : 0.2000E-04   eV/atom
        max ionic |force| tolerance             : 0.5000E-01   eV/A
 max ionic |displacement| tolerance             : 0.2000E-02   A
   max |stress component| tolerance             : 0.1000       GPa
 convergence tolerance window                   :          2   steps
 backup results every                           :          5   steps
 write geom trajectory file                     : on

 *******************************************************************************
  
 
                           -------------------------------
                                      Unit Cell
                           -------------------------------
        Real Lattice(A)                      Reciprocal Lattice(1/A)
    13.4840002    -0.0000006    -0.0000006        0.465973392   0.000000000   0.000000000
     0.0000000    20.4006996    -0.0000009        0.000000013   0.307988717   0.000000000
     0.0000000     0.0000000    45.0000000        0.000000006   0.000000006   0.139626340
 
                       Lattice parameters(A)       Cell Angles
                    a =     13.484000          alpha =   90.000003
                    b =     20.400700          beta  =   90.000003
                    c =     45.000000          gamma =   90.000003
 
                       Current cell volume =         12378.736702       A**3
                                   density =             0.015698   AMU/A**3
                                           =             0.026068     g/cm^3
 
                           -------------------------------
                                     Cell Contents
                           -------------------------------
                         Total number of ions in cell =   32
                      Total number of species in cell =    5
                        Max number of any one species =   20
 
            xxxxxxxxxxxxxxxxxxxxxxxxxxxxxxxxxxxxxxxxxxxxxxxxxxxxxxxxxxxx
            x  Element    Atom        Fractional coordinates of atoms  x
            x            Number           u          v          w      x
            x----------------------------------------------------------x
            x  H            1         0.606218   0.485919   0.518886   x 
            x  H            2         0.656622   0.549765   0.541804   x 
            x  H            3         0.436429   0.507033   0.540271   x 
            x  H            4         0.485884   0.569671   0.563380   x 
            x  H            5         0.616101   0.637589   0.470864   x 
            x  H            6         0.707455   0.612521   0.497139   x 
            x  H            7         0.692846   0.494868   0.477453   x 
            x  H            8         0.737713   0.554442   0.452808   x 
            x  H            9         0.628453   0.481209   0.425721   x 
            x  H           10         0.574111   0.559794   0.426436   x 
            x  H           11         0.478155   0.381406   0.477849   x 
            x  H           12         0.381320   0.468086   0.413675   x 
            x  H           13         0.340615   0.531020   0.472686   x 
            x  H           14         0.498504   0.568414   0.496065   x 
            x  H           15         0.543627   0.626331   0.517312   x 
            x  H           16         0.543818   0.423888   0.565888   x 
            x  H           17         0.593370   0.486125   0.588989   x 
            x  H           18         0.458388   0.425115   0.615216   x 
            x  H           19         0.373069   0.445557   0.586533   x 
            x  H           20         0.422801   0.508203   0.609774   x 
            x  C            1         0.589072   0.531934   0.530613   x 
            x  C            2         0.503521   0.522670   0.552432   x 
            x  C            3         0.641787   0.595992   0.484554   x 
            x  C            4         0.669717   0.538094   0.464450   x 
            x  C            5         0.592737   0.517335   0.440577   x 
            x  C            6         0.526520   0.471456   0.576438   x 
            x  C            7         0.440520   0.462090   0.598166   x 
            x  N            1         0.560092   0.583856   0.506876   x 
            x  O            1         0.403116   0.445078   0.430782   x 
            x  O            2         0.410699   0.536895   0.472171   x 
            x  O            3         0.500818   0.425034   0.480957   x 
            x  Si           1         0.474146   0.479121   0.455465   x 
            xxxxxxxxxxxxxxxxxxxxxxxxxxxxxxxxxxxxxxxxxxxxxxxxxxxxxxxxxxxx
 
 
                         No user defined ionic velocities
 
                           -------------------------------
                                   Details of Species
                           -------------------------------
 
                               Mass of species in AMU
                                    H    1.0080000
                                    C   12.0109997
                                    N   14.0070000
                                    O   15.9989996
                                    Si   28.0849991
 
                          Electric Quadrupole Moment (Barn)
                                    H    0.0028600 Isotope  2
                                    C    0.0332700 Isotope 11
                                    N    0.0204400 Isotope 14
                                    O   -0.0255800 Isotope 17
                                    Si    1.0000000 No Isotope Defined
 
                          Files used for pseudopotentials:
                                    H 1|0.6|9|10|15|10UU(qc=8)[]
                                    C 2|1.4|11|12|14.7|20UU:21UU(qc=7)[]
                                    N 2|1.1|12|16|19|20UU:21UU(qc=7)[]
                                    O 2|1.1|14|18|21|20UU:21UU(qc=7)[]
                                    Si 3|1.8|3.6|5|7|30UU:31UU:32UU[]
 
                           -------------------------------
                              k-Points For BZ Sampling
                           -------------------------------
                       MP grid size for SCF calculation is  1  1  1
                            with an offset of   0.000  0.000  0.000
                       Number of kpoints used =             1
 
                           -------------------------------
                               Symmetry and Constraints
                           -------------------------------
 
                      Maximum deviation from symmetry =  0.00000         ANG
 
                      Number of symmetry operations   =           1
                      Number of nonlinear constraints =           3
         There are no ionic constraints specified or generated for this cell
                      Point group of crystal =     1: C1, 1, 1
                      Space group of crystal =     1: P1, P 1
 
             Set iprint > 1 for details on symmetry rotations/translations
 
                         Centre of mass is NOT constrained
 
                         Number of cell constraints= 6
                         Cell constraints are:  0 0 0 0 0 0
 
                         External pressure/stress (GPa)
                          0.00000   0.00000   0.00000
                                    0.00000   0.00000
                                              0.00000
 
                                --------------------
                                  DFT-D parameters
                                --------------------
 
                          Dispersion-correction scheme : G06       
                        Parameter s6 :   0.750000 (default)
                        Parameter d  :  20.000000 (default)
 
        xxxxxxxxxxxxxxxxxxxxxxxxxxxxxxxxxxxxxxxxxxxxxxxxxxxxxxxxxxxxxxxxxxxx
        x              Atomic DFT-D parameters                             x
        x  Species      C6            R0                                   x
        x               eV A^6        Ang                                  x
        x------------------------------------------------------------------x
        x  H             1.4510       1.0010   (default)                   x
        x  C            18.1375       1.4520   (default)                   x
        x  N            12.7481       1.3970   (default)                   x
        x  O             7.2550       1.3420   (default)                   x
        x  Si           95.6622       1.7160   (default)                   x
        xxxxxxxxxxxxxxxxxxxxxxxxxxxxxxxxxxxxxxxxxxxxxxxxxxxxxxxxxxxxxxxxxxxx
 
 
+---------------- MEMORY AND SCRATCH DISK ESTIMATES PER PROCESS --------------+
|                                                     Memory          Disk    |
| Baseline code, static data and system overhead     6530.0 MB         0.0 MB |
| BLAS internal memory storage                          0.0 MB         0.0 MB |
| Model and support data                              540.6 MB         0.0 MB |
| Electronic energy minimisation requirements          31.8 MB         0.0 MB |
| Force calculation requirements                        6.8 MB         0.0 MB |
|                                               ----------------------------- |
| Approx. total storage required per process         7102.3 MB         0.0 MB |
|                                                                             |
| Requirements will fluctuate during execution and may exceed these estimates |
+-----------------------------------------------------------------------------+
Calculating approximate eigenstates for fixed initial Hamiltonian
Cut-off for approx. calculation is  119.774 eV
Improving approx. states at cut-off of  300.000 eV
Resetting cut-off to  600.000 eV
Calculating total energy with cut-off of  600.000 eV.
------------------------------------------------------------------------ <-- SCF
SCF loop      Energy                           Energy gain       Timer   <-- SCF
                                               per atom          (sec)   <-- SCF
------------------------------------------------------------------------ <-- SCF
Initial  -2.97429196E+003                                         31.44  <-- SCF
      1  -3.20405039E+003                    7.17995100E+000      32.32  <-- SCF
      2  -3.20434627E+003                    9.24645000E-003      33.20  <-- SCF
      3  -3.19305624E+003                   -3.52813578E-001      34.22  <-- SCF
      4  -3.19195089E+003                   -3.45421221E-002      35.44  <-- SCF
      5  -3.19139216E+003                   -1.74603670E-002      36.45  <-- SCF
      6  -3.19131896E+003                   -2.28739428E-003      37.74  <-- SCF
      7  -3.19126814E+003                   -1.58832846E-003      38.75  <-- SCF
      8  -3.19126309E+003                   -1.57742705E-004      39.89  <-- SCF
      9  -3.19125118E+003                   -3.72100068E-004      40.90  <-- SCF
     10  -3.19123504E+003                   -5.04429167E-004      41.93  <-- SCF
     11  -3.19121407E+003                   -6.55215496E-004      43.00  <-- SCF
     12  -3.19114461E+003                   -2.17086668E-003      43.99  <-- SCF
     13  -3.19108140E+003                   -1.97524761E-003      45.02  <-- SCF
     14  -3.19099857E+003                   -2.58830067E-003      46.02  <-- SCF
     15  -3.19093904E+003                   -1.86036269E-003      47.02  <-- SCF
     16  -3.19090161E+003                   -1.16958920E-003      48.00  <-- SCF
     17  -3.19087421E+003                   -8.56222881E-004      48.99  <-- SCF
     18  -3.19084601E+003                   -8.81406935E-004      50.00  <-- SCF
     19  -3.19081038E+003                   -1.11338358E-003      51.01  <-- SCF
     20  -3.19078741E+003                   -7.17960462E-004      51.88  <-- SCF
     21  -3.19075369E+003                   -1.05360459E-003      52.87  <-- SCF
     22  -3.19074886E+003                   -1.50846548E-004      53.90  <-- SCF
     23  -3.19075037E+003                    4.72009372E-005      54.90  <-- SCF
     24  -3.19075011E+003                   -8.32107327E-006      55.81  <-- SCF
     25  -3.19075605E+003                    1.85608912E-004      56.74  <-- SCF
     26  -3.19076003E+003                    1.24342738E-004      57.57  <-- SCF
     27  -3.19076380E+003                    1.18042989E-004      58.40  <-- SCF
     28  -3.19076644E+003                    8.24404549E-005      59.20  <-- SCF
     29  -3.19076915E+003                    8.46799844E-005      60.00  <-- SCF
     30  -3.19077080E+003                    5.14463578E-005      60.79  <-- SCF
     31  -3.19077239E+003                    4.96096248E-005      61.58  <-- SCF
     32  -3.19077464E+003                    7.03068531E-005      62.38  <-- SCF
     33  -3.19077586E+003                    3.82985459E-005      63.18  <-- SCF
     34  -3.19077694E+003                    3.38750540E-005      63.98  <-- SCF
     35  -3.19077765E+003                    2.21824806E-005      64.80  <-- SCF
     36  -3.19077842E+003                    2.39141934E-005      65.61  <-- SCF
     37  -3.19077885E+003                    1.35957782E-005      66.41  <-- SCF
     38  -3.19077929E+003                    1.37169251E-005      67.21  <-- SCF
     39  -3.19077966E+003                    1.13622116E-005      68.01  <-- SCF
     40  -3.19077993E+003                    8.48409856E-006      68.81  <-- SCF
     41  -3.19078031E+003                    1.19972110E-005      69.61  <-- SCF
     42  -3.19078046E+003                    4.64013203E-006      70.41  <-- SCF
     43  -3.19078062E+003                    4.98641223E-006      71.21  <-- SCF
     44  -3.19078076E+003                    4.33264097E-006      72.01  <-- SCF
     45  -3.19078083E+003                    2.26142280E-006      72.80  <-- SCF
     46  -3.19078089E+003                    1.75101092E-006      73.60  <-- SCF
     47  -3.19078091E+003                    6.53962146E-007      74.40  <-- SCF
     48  -3.19078092E+003                    4.92901952E-007      75.19  <-- SCF
------------------------------------------------------------------------ <-- SCF
 
Final energy =  -3190.780924495     eV
(energy not corrected for finite basis set)
 
(SEDC) Total Energy Correction : -0.854258E+00 eV

Dispersion corrected final energy* =  -3191.635182833     eV

Writing analysis data to Conf_0002.castep_bin

Writing model to Conf_0002.check

WARNING - nonlinear constraints cannot be used with LBFGS algorithm
        - consider setting geom_method=DELOCALIZED
 
        => Turning nonlinear constraints OFF
 
+---------------- MEMORY AND SCRATCH DISK ESTIMATES PER PROCESS --------------+
|                                                     Memory          Disk    |
| Model and support data                              550.1 MB         0.0 MB |
| Electronic energy minimisation requirements          31.8 MB         0.0 MB |
| Geometry minimisation requirements                   34.8 MB         0.0 MB |
|                                               ----------------------------- |
| Approx. total storage required per process          616.7 MB         0.0 MB |
|                                                                             |
| Requirements will fluctuate during execution and may exceed these estimates |
+-----------------------------------------------------------------------------+
 
 
 ************************************** Forces **************************************
 *                                                                                  *
 *                           Cartesian components (eV/A)                            *
 * -------------------------------------------------------------------------------- *
 *                         x                    y                    z              *
 *                                                                                  *
 * H               1     -0.10904              0.20715             -0.08312         *
 * H               2     -0.09628              0.04806             -0.15789         *
 * H               3      0.08221              0.04378             -0.01822         *
 * H               4      0.01615              0.04487             -0.02820         *
 * H               5      0.03469             -0.12919              0.02397         *
 * H               6     -0.19669             -0.10537             -0.01968         *
 * H               7     -0.09189              0.11467              0.06945         *
 * H               8     -0.17289              0.01350              0.11708         *
 * H               9     -0.14166              0.04719              0.11509         *
 * H              10     -0.02056             -0.03003              0.02282         *
 * H              11     -0.26197             -0.97923             -0.05851         *
 * H              12     -0.32838              0.43020             -0.91811         *
 * H              13     -0.91606             -0.02744              0.17180         *
 * H              14     -1.26315             -0.28562             -0.46359         *
 * H              15     -0.15040              0.56495              0.36814         *
 * H              16      0.03024              0.10927             -0.03108         *
 * H              17     -0.03654             -0.01135             -0.09891         *
 * H              18      0.03392              0.12948             -0.11977         *
 * H              19      0.06100              0.00905             -0.00470         *
 * H              20      0.01329             -0.05961             -0.05998         *
 * C               1     -0.43797              0.32605             -0.07572         *
 * C               2     -0.04102             -0.04992             -0.01400         *
 * C               3      0.15540              0.33479             -0.31441         *
 * C               4      0.05563             -0.05516             -0.16052         *
 * C               5     -0.31805              0.04024              0.49554         *
 * C               6      0.17415             -0.15423              0.07066         *
 * C               7     -0.12243              0.02332              0.06400         *
 * N               1      2.12439             -1.11883              0.91232         *
 * O               1      0.11211             -0.81557              0.51297         *
 * O               2      0.54256              1.09675              0.33922         *
 * O               3      0.44228              0.54223              0.26645         *
 * Si              1      0.82696             -0.30402             -0.92311         *
 *                                                                                  *
 ************************************************************************************
 EXP precond LBFGS => estimated nearest neighbor distance :  1.623       A
 EXP precond LBFGS => estimated cutoff distance :  3.245       A
 doing test perturbation to get energy scale for EXP preconditioner
 
                           -------------------------------
                                     Cell Contents
                           -------------------------------
 
            xxxxxxxxxxxxxxxxxxxxxxxxxxxxxxxxxxxxxxxxxxxxxxxxxxxxxxxxxxxxxxxxx
            x  Element         Atom        Fractional coordinates of atoms  x
            x                 Number           u          v          w      x
            x---------------------------------------------------------------x
            x  H                 1         0.607421   0.486672   0.519080   x
            x  H                 2         0.657821   0.550432   0.541962   x
            x  H                 3         0.437501   0.507763   0.540432   x
            x  H                 4         0.487016   0.570302   0.563502   x
            x  H                 5         0.617304   0.638072   0.471124   x
            x  H                 6         0.708632   0.613064   0.497365   x
            x  H                 7         0.694031   0.495612   0.477705   x
            x  H                 8         0.738867   0.555101   0.453089   x
            x  H                 9         0.629657   0.481967   0.426030   x
            x  H                10         0.575305   0.560444   0.426744   x
            x  H                11         0.479278   0.382199   0.478100   x
            x  H                12         0.382306   0.468855   0.413994   x
            x  H                13         0.341526   0.531717   0.472944   x
            x  H                14         0.499649   0.569048   0.496292   x
            x  H                15         0.544806   0.626841   0.517509   x
            x  H                16         0.544997   0.424681   0.566007   x
            x  H                17         0.594570   0.486879   0.589068   x
            x  H                18         0.459489   0.425907   0.615248   x
            x  H                19         0.374041   0.446341   0.586616   x
            x  H                20         0.423854   0.508932   0.609815   x
            x  C                 1         0.590271   0.532630   0.530788   x
            x  C                 2         0.504670   0.523380   0.552572   x
            x  C                 3         0.642989   0.596571   0.484796   x
            x  C                 4         0.670913   0.538781   0.464718   x
            x  C                 5         0.593937   0.518052   0.440871   x
            x  C                 6         0.527688   0.472223   0.576538   x
            x  C                 7         0.441598   0.462863   0.598228   x
            x  N                 1         0.561280   0.584460   0.507087   x
            x  O                 1         0.404138   0.445863   0.431087   x
            x  O                 2         0.411734   0.537583   0.472430   x
            x  O                 3         0.501965   0.425827   0.481204   x
            x  Si                1         0.475265   0.479881   0.455743   x
            xxxxxxxxxxxxxxxxxxxxxxxxxxxxxxxxxxxxxxxxxxxxxxxxxxxxxxxxxxxxxxxxx
 
 
------------------------------------------------------------------------ <-- SCF
SCF loop      Energy                           Energy gain       Timer   <-- SCF
                                               per atom          (sec)   <-- SCF
------------------------------------------------------------------------ <-- SCF
Initial  -3.19246712E+003                                         77.18  <-- SCF
      1  -3.19076955E+003                   -5.30489050E-002      77.98  <-- SCF
      2  -3.19079335E+003                    7.43588483E-004      79.16  <-- SCF
      3  -3.19077042E+003                   -7.16486903E-004      80.22  <-- SCF
      4  -3.19078508E+003                    4.58185042E-004      81.24  <-- SCF
      5  -3.19078521E+003                    3.91658326E-006      82.04  <-- SCF
      6  -3.19078539E+003                    5.77008504E-006      82.81  <-- SCF
      7  -3.19078546E+003                    2.06403812E-006      83.58  <-- SCF
      8  -3.19078550E+003                    1.31553454E-006      84.35  <-- SCF
      9  -3.19078554E+003                    1.19106609E-006      85.12  <-- SCF
     10  -3.19078556E+003                    6.60387843E-007      85.89  <-- SCF
------------------------------------------------------------------------ <-- SCF
 
Final energy =  -3190.785558560     eV
(energy not corrected for finite basis set)
 
(SEDC) Total Energy Correction : -0.855491E+00 eV

Dispersion corrected final energy* =  -3191.641049211     eV
 
 ************************************** Forces **************************************
 *                                                                                  *
 *                           Cartesian components (eV/A)                            *
 * -------------------------------------------------------------------------------- *
 *                         x                    y                    z              *
 *                                                                                  *
 * H               1     -0.10448              0.15904             -0.10113         *
 * H               2     -0.08992              0.04844             -0.14310         *
 * H               3      0.09390              0.03420             -0.02745         *
 * H               4      0.00937              0.08411             -0.00566         *
 * H               5      0.04452             -0.08512             -0.00318         *
 * H               6     -0.19029             -0.10055              0.00113         *
 * H               7     -0.08281              0.07653              0.07883         *
 * H               8     -0.15022              0.00807              0.10805         *
 * H               9     -0.11432              0.01916              0.09472         *
 * H              10     -0.01825              0.03577              0.00530         *
 * H              11     -0.26154             -0.99479             -0.05995         *
 * H              12     -0.33362              0.42809             -0.95461         *
 * H              13     -0.82956             -0.03038              0.16842         *
 * H              14     -1.26629             -0.29250             -0.47729         *
 * H              15     -0.15466              0.62922              0.41114         *
 * H              16      0.03476              0.12041             -0.04125         *
 * H              17     -0.03165             -0.01444             -0.08662         *
 * H              18      0.03339              0.10439             -0.08939         *
 * H              19      0.08662              0.00014             -0.00641         *
 * H              20      0.00992             -0.04446             -0.03759         *
 * C               1     -0.46070              0.33012             -0.06378         *
 * C               2     -0.03729             -0.07930             -0.04697         *
 * C               3      0.15035              0.33134             -0.29220         *
 * C               4      0.04323             -0.07159             -0.17436         *
 * C               5     -0.33178              0.01659              0.51355         *
 * C               6      0.15678             -0.16714              0.09251         *
 * C               7     -0.12646             -0.00028              0.04286         *
 * N               1      2.08077             -1.04164              0.84469         *
 * O               1      0.12772             -0.83172              0.53717         *
 * O               2      0.43466              1.10548              0.37257         *
 * O               3      0.44438              0.52104              0.29147         *
 * Si              1      0.83346             -0.29825             -0.95148         *
 *                                                                                  *
 ************************************************************************************
 EXP precond LBFGS => estimated parameter mu :  1.000       eV/A**2
 LBFGS: finished iteration     0 with enthalpy= -3.19163518E+003 eV
  
 +-----------+-----------------+-----------------+------------+-----+ <-- LBFGS
 | Parameter |      value      |    tolerance    |    units   | OK? | <-- LBFGS
 +-----------+-----------------+-----------------+------------+-----+ <-- LBFGS
 |  dE/ion   |   0.000000E+000 |   2.000000E-005 |         eV | No  | <-- LBFGS
 |  |F|max   |   2.475504E+000 |   5.000000E-002 |       eV/A | No  | <-- LBFGS
 |  |dR|max  |   7.853740E-015 |   2.000000E-003 |          A | No  | <-- LBFGS
 +-----------+-----------------+-----------------+------------+-----+ <-- LBFGS
  

================================================================================
 Starting LBFGS iteration          1 ...
================================================================================
  
 +------------+-------------+-------------+-----------------+ <-- min LBFGS
 |    Step    |   lambda    |   F.delta'  |    enthalpy     | <-- min LBFGS
 +------------+-------------+-------------+-----------------+ <-- min LBFGS
 |  previous  |    0.000000 |    2.003563 |    -3191.635183 | <-- min LBFGS
 +------------+-------------+-------------+-----------------+ <-- min LBFGS
  

--------------------------------------------------------------------------------
 LBFGS: starting iteration         1 with trial guess (lambda=  0.566153)
--------------------------------------------------------------------------------
 
                           -------------------------------
                                     Cell Contents
                           -------------------------------
 
            xxxxxxxxxxxxxxxxxxxxxxxxxxxxxxxxxxxxxxxxxxxxxxxxxxxxxxxxxxxxxxxxx
            x  Element         Atom        Fractional coordinates of atoms  x
            x                 Number           u          v          w      x
            x---------------------------------------------------------------x
            x  H                 1         0.605357   0.488082   0.519069   x
            x  H                 2         0.655836   0.551544   0.541850   x
            x  H                 3         0.437712   0.508785   0.540322   x
            x  H                 4         0.486848   0.571411   0.563426   x
            x  H                 5         0.616878   0.637061   0.471748   x
            x  H                 6         0.706707   0.612282   0.497871   x
            x  H                 7         0.690768   0.495402   0.478416   x
            x  H                 8         0.734710   0.554491   0.453987   x
            x  H                 9         0.624545   0.480796   0.427144   x
            x  H                10         0.571211   0.559195   0.427688   x
            x  H                11         0.481000   0.369311   0.476996   x
            x  H                12         0.377770   0.464395   0.408140   x
            x  H                13         0.331339   0.535004   0.473247   x
            x  H                14         0.494605   0.567730   0.496432   x
            x  H                15         0.545741   0.628109   0.519164   x
            x  H                16         0.545371   0.426070   0.565609   x
            x  H                17         0.594446   0.487735   0.588562   x
            x  H                18         0.459872   0.427712   0.614538   x
            x  H                19         0.374727   0.447559   0.586136   x
            x  H                20         0.424105   0.509870   0.609255   x
            x  C                 1         0.587797   0.534068   0.530907   x
            x  C                 2         0.504206   0.524200   0.552485   x
            x  C                 3         0.642778   0.596608   0.485122   x
            x  C                 4         0.668137   0.538004   0.465254   x
            x  C                 5         0.589062   0.516836   0.442159   x
            x  C                 6         0.528355   0.472886   0.576258   x
            x  C                 7         0.441495   0.464113   0.597795   x
            x  N                 1         0.567573   0.581890   0.508727   x
            x  O                 1         0.402675   0.437463   0.427890   x
            x  O                 2         0.409778   0.543029   0.472735   x
            x  O                 3         0.506772   0.419482   0.480549   x
            x  Si                1         0.480073   0.475390   0.452752   x
            xxxxxxxxxxxxxxxxxxxxxxxxxxxxxxxxxxxxxxxxxxxxxxxxxxxxxxxxxxxxxxxxx
 
 
------------------------------------------------------------------------ <-- SCF
SCF loop      Energy                           Energy gain       Timer   <-- SCF
                                               per atom          (sec)   <-- SCF
------------------------------------------------------------------------ <-- SCF
Initial  -3.19654358E+003                                         87.25  <-- SCF
      1  -3.18718416E+003                   -2.92481874E-001      88.05  <-- SCF
      2  -3.18951571E+003                    7.28610992E-002      89.25  <-- SCF
      3  -3.18897373E+003                   -1.69370380E-002      90.44  <-- SCF
      4  -3.18908092E+003                    3.34979721E-003      91.52  <-- SCF
      5  -3.18912627E+003                    1.41729326E-003      92.57  <-- SCF
      6  -3.18912758E+003                    4.08873428E-005      93.75  <-- SCF
      7  -3.18912749E+003                   -2.96574533E-006      94.74  <-- SCF
      8  -3.18912728E+003                   -6.50084972E-006      95.62  <-- SCF
      9  -3.18912721E+003                   -2.06411923E-006      96.54  <-- SCF
     10  -3.18912731E+003                    3.09511555E-006      97.38  <-- SCF
     11  -3.18912747E+003                    5.09789849E-006      98.26  <-- SCF
     12  -3.18912803E+003                    1.72208155E-005      99.05  <-- SCF
     13  -3.18912856E+003                    1.67568448E-005      99.82  <-- SCF
     14  -3.18912895E+003                    1.19924934E-005     100.60  <-- SCF
     15  -3.18912949E+003                    1.70969543E-005     101.37  <-- SCF
     16  -3.18912979E+003                    9.33807710E-006     102.15  <-- SCF
     17  -3.18913013E+003                    1.07157672E-005     102.93  <-- SCF
     18  -3.18913046E+003                    1.00907648E-005     103.71  <-- SCF
     19  -3.18913067E+003                    6.60489390E-006     104.49  <-- SCF
     20  -3.18913090E+003                    7.33392085E-006     105.27  <-- SCF
     21  -3.18913099E+003                    2.62396101E-006     106.06  <-- SCF
     22  -3.18913106E+003                    2.41493597E-006     106.85  <-- SCF
     23  -3.18913112E+003                    1.84852547E-006     107.64  <-- SCF
     24  -3.18913114E+003                    5.32399335E-007     108.43  <-- SCF
     25  -3.18913123E+003                    2.64515471E-006     109.22  <-- SCF
     26  -3.18913123E+003                    1.01289832E-007     110.05  <-- SCF
     27  -3.18913134E+003                    3.53876661E-006     110.85  <-- SCF
     28  -3.18913136E+003                    6.60219581E-007     111.64  <-- SCF
     29  -3.18913150E+003                    4.13568533E-006     112.43  <-- SCF
     30  -3.18913154E+003                    1.28130760E-006     113.23  <-- SCF
     31  -3.18913163E+003                    3.05909221E-006     114.02  <-- SCF
     32  -3.18913174E+003                    3.42829910E-006     114.81  <-- SCF
     33  -3.18913183E+003                    2.79155653E-006     115.60  <-- SCF
     34  -3.18913198E+003                    4.51841149E-006     116.39  <-- SCF
     35  -3.18913204E+003                    1.81589955E-006     117.18  <-- SCF
     36  -3.18913219E+003                    4.72210218E-006     117.97  <-- SCF
     37  -3.18913226E+003                    2.37562039E-006     118.76  <-- SCF
     38  -3.18913236E+003                    3.08867990E-006     119.55  <-- SCF
     39  -3.18913243E+003                    2.25859653E-006     120.34  <-- SCF
     40  -3.18913248E+003                    1.56351365E-006     121.13  <-- SCF
     41  -3.18913251E+003                    8.99134654E-007     121.91  <-- SCF
     42  -3.18913255E+003                    1.04192182E-006     122.70  <-- SCF
------------------------------------------------------------------------ <-- SCF
 
Final energy =  -3189.132546700     eV
(energy not corrected for finite basis set)
 
(SEDC) Total Energy Correction : -0.846567E+00 eV

Dispersion corrected final energy* =  -3189.979113421     eV
 
 ************************************** Forces **************************************
 *                                                                                  *
 *                           Cartesian components (eV/A)                            *
 * -------------------------------------------------------------------------------- *
 *                         x                    y                    z              *
 *                                                                                  *
 * H               1     -0.04604              0.03648              0.19957         *
 * H               2      0.10912             -0.30554              0.29629         *
 * H               3     -0.16429             -0.02611             -0.08423         *
 * H               4     -0.03015             -0.05419             -0.00365         *
 * H               5     -0.40228              0.46460             -0.17846         *
 * H               6      0.68776              0.14185             -0.07128         *
 * H               7     -0.00643             -0.06799              0.14195         *
 * H               8      0.33987              0.00487             -0.47199         *
 * H               9      0.15602              0.13645             -0.01043         *
 * H              10     -0.07885             -0.17672              0.10252         *
 * H              11      1.14863              3.78992              0.46623         *
 * H              12      1.37063             -1.89652              3.31260         *
 * H              13      3.45408              0.43032              0.09253         *
 * H              14      1.39226              0.38862              0.86777         *
 * H              15      0.68895             -1.74774             -0.79621         *
 * H              16      0.08537             -0.18553             -0.15079         *
 * H              17      0.27557              0.08600              0.12291         *
 * H              18      0.05274             -0.24701              0.29845         *
 * H              19     -0.10606             -0.05038             -0.10027         *
 * H              20     -0.04651              0.20020              0.07081         *
 * C               1      1.55843             -1.30033              0.68149         *
 * C               2     -0.21045              0.14526              0.32135         *
 * C               3      0.13654             -0.99009              0.53108         *
 * C               4     -0.36212             -0.02909              0.38311         *
 * C               5      1.91590              1.08197             -1.07556         *
 * C               6     -0.41787              0.22667              0.00593         *
 * C               7      0.18834              0.01214             -0.25237         *
 * N               1     -4.40783              2.78899             -2.07441         *
 * O               1      0.11396              2.84473             -1.90547         *
 * O               2     -1.71915             -2.24419             -1.16153         *
 * O               3     -1.51316             -2.30769             -2.03982         *
 * Si              1     -4.16297             -1.14997              2.48190         *
 *                                                                                  *
 ************************************************************************************
  
 +------------+-------------+-------------+-----------------+ <-- min LBFGS
 |    Step    |   lambda    |   F.delta'  |    enthalpy     | <-- min LBFGS
 +------------+-------------+-------------+-----------------+ <-- min LBFGS
 |  previous  |    0.000000 |    2.003563 |    -3191.635183 | <-- min LBFGS
 | trial step |    0.566153 |   -5.465881 |    -3189.979113 | <-- min LBFGS
 +------------+-------------+-------------+-----------------+ <-- min LBFGS
  

--------------------------------------------------------------------------------
 LBFGS: improving iteration         1 with line minimization (lambda=  0.151862)
--------------------------------------------------------------------------------
 
                           -------------------------------
                                     Cell Contents
                           -------------------------------
 
            xxxxxxxxxxxxxxxxxxxxxxxxxxxxxxxxxxxxxxxxxxxxxxxxxxxxxxxxxxxxxxxxx
            x  Element         Atom        Fractional coordinates of atoms  x
            x                 Number           u          v          w      x
            x---------------------------------------------------------------x
            x  H                 1         0.605987   0.486499   0.518935   x
            x  H                 2         0.656411   0.550242   0.541816   x
            x  H                 3         0.436773   0.507503   0.540285   x
            x  H                 4         0.486143   0.570137   0.563392   x
            x  H                 5         0.616309   0.637447   0.471101   x
            x  H                 6         0.707254   0.612457   0.497336   x
            x  H                 7         0.692288   0.495011   0.477711   x
            x  H                 8         0.736907   0.554455   0.453124   x
            x  H                 9         0.627405   0.481098   0.426102   x
            x  H                10         0.573333   0.559633   0.426772   x
            x  H                11         0.478918   0.378162   0.477620   x
            x  H                12         0.380368   0.467096   0.412190   x
            x  H                13         0.338127   0.532088   0.472837   x
            x  H                14         0.497458   0.568230   0.496164   x
            x  H                15         0.544194   0.626808   0.517809   x
            x  H                16         0.544234   0.424474   0.565813   x
            x  H                17         0.593659   0.486557   0.588875   x
            x  H                18         0.458786   0.425811   0.615034   x
            x  H                19         0.373514   0.446094   0.586427   x
            x  H                20         0.423151   0.508650   0.609635   x
            x  C                 1         0.588730   0.532506   0.530692   x
            x  C                 2         0.503705   0.523081   0.552446   x
            x  C                 3         0.642053   0.596157   0.484706   x
            x  C                 4         0.669293   0.538070   0.464666   x
            x  C                 5         0.591752   0.517201   0.441001   x
            x  C                 6         0.527012   0.471840   0.576390   x
            x  C                 7         0.440782   0.462632   0.598066   x
            x  N                 1         0.562099   0.583329   0.507372   x
            x  O                 1         0.402998   0.443036   0.430007   x
            x  O                 2         0.410452   0.538540   0.472323   x
            x  O                 3         0.502415   0.423545   0.480848   x
            x  Si                1         0.475736   0.478120   0.454737   x
            xxxxxxxxxxxxxxxxxxxxxxxxxxxxxxxxxxxxxxxxxxxxxxxxxxxxxxxxxxxxxxxxx
 
 
------------------------------------------------------------------------ <-- SCF
SCF loop      Energy                           Energy gain       Timer   <-- SCF
                                               per atom          (sec)   <-- SCF
------------------------------------------------------------------------ <-- SCF
Initial  -3.20944404E+003                                        124.06  <-- SCF
      1  -3.19025099E+003                   -5.99782854E-001     124.88  <-- SCF
      2  -3.19107220E+003                    2.56629273E-002     125.99  <-- SCF
      3  -3.19079058E+003                   -8.80070821E-003     127.00  <-- SCF
      4  -3.19088566E+003                    2.97129230E-003     128.07  <-- SCF
      5  -3.19091433E+003                    8.95913879E-004     129.15  <-- SCF
      6  -3.19091517E+003                    2.62362684E-005     130.17  <-- SCF
      7  -3.19091512E+003                   -1.57158164E-006     131.08  <-- SCF
      8  -3.19091507E+003                   -1.62542979E-006     131.89  <-- SCF
      9  -3.19091507E+003                   -1.41696581E-007     132.82  <-- SCF
------------------------------------------------------------------------ <-- SCF
 
Final energy =  -3190.915065143     eV
(energy not corrected for finite basis set)
 
(SEDC) Total Energy Correction : -0.851536E+00 eV

Dispersion corrected final energy* =  -3191.766601037     eV
 
 ************************************** Forces **************************************
 *                                                                                  *
 *                           Cartesian components (eV/A)                            *
 * -------------------------------------------------------------------------------- *
 *                         x                    y                    z              *
 *                                                                                  *
 * H               1     -0.09450              0.16979             -0.00400         *
 * H               2     -0.05387             -0.03296             -0.04907         *
 * H               3      0.01129              0.03002             -0.02963         *
 * H               4     -0.00069              0.03065             -0.01498         *
 * H               5     -0.07987              0.03010             -0.02041         *
 * H               6      0.02583             -0.03540             -0.03190         *
 * H               7     -0.06730              0.07368              0.09073         *
 * H               8     -0.05042              0.01413             -0.03048         *
 * H               9     -0.07947              0.08169              0.08843         *
 * H              10     -0.04886             -0.06001              0.05125         *
 * H              11      0.26551              0.83076              0.16012         *
 * H              12      0.31220             -0.44812              0.71570         *
 * H              13      0.63886              0.10222              0.13218         *
 * H              14     -0.17638              0.07023              0.13131         *
 * H              15      0.09642             -0.17776             -0.00736         *
 * H              16      0.04417              0.05781             -0.05862         *
 * H              17      0.04554              0.01919             -0.03183         *
 * H              18      0.03662              0.04393             -0.00207         *
 * H              19      0.01100             -0.00373             -0.02870         *
 * H              20     -0.00718              0.01818             -0.02038         *
 * C               1      0.04621              0.03791             -0.00812         *
 * C               2     -0.07934              0.00980              0.07723         *
 * C               3      0.14708              0.00208             -0.09067         *
 * C               4     -0.05448             -0.03854             -0.01436         *
 * C               5      0.18086              0.22782              0.06198         *
 * C               6      0.01032             -0.04617              0.06423         *
 * C               7     -0.04426              0.02391             -0.00833         *
 * N               1      0.11306             -0.34969              0.08156         *
 * O               1     -0.00305              0.48636             -0.55903         *
 * O               2     -0.06121             -0.33474             -0.38627         *
 * O               3     -0.29664             -0.73570             -0.54018         *
 * Si              1     -0.78747             -0.09742              0.28165         *
 *                                                                                  *
 ************************************************************************************
  
 +------------+-------------+-------------+-----------------+ <-- min LBFGS
 |    Step    |   lambda    |   F.delta'  |    enthalpy     | <-- min LBFGS
 +------------+-------------+-------------+-----------------+ <-- min LBFGS
 |  previous  |    0.000000 |    2.003563 |    -3191.635183 | <-- min LBFGS
 | trial step |    0.566153 |   -5.465881 |    -3189.979113 | <-- min LBFGS
 |  line step |    0.151862 |   -0.572047 |    -3191.766601 | <-- min LBFGS
 +------------+-------------+-------------+-----------------+ <-- min LBFGS
  
 LBFGS: finished iteration     1 with enthalpy= -3.19176660E+003 eV
  
 +-----------+-----------------+-----------------+------------+-----+ <-- LBFGS
 | Parameter |      value      |    tolerance    |    units   | OK? | <-- LBFGS
 +-----------+-----------------+-----------------+------------+-----+ <-- LBFGS
 |  dE/ion   |   4.106819E-003 |   2.000000E-005 |         eV | No  | <-- LBFGS
 |  |F|max   |   9.597094E-001 |   5.000000E-002 |       eV/A | No  | <-- LBFGS
 |  |dR|max  |   7.097180E-002 |   2.000000E-003 |          A | No  | <-- LBFGS
 +-----------+-----------------+-----------------+------------+-----+ <-- LBFGS
  

================================================================================
 Starting LBFGS iteration          2 ...
================================================================================
  
 +------------+-------------+-------------+-----------------+ <-- min LBFGS
 |    Step    |   lambda    |   F.delta'  |    enthalpy     | <-- min LBFGS
 +------------+-------------+-------------+-----------------+ <-- min LBFGS
 |  previous  |    0.000000 |    0.705829 |    -3191.766601 | <-- min LBFGS
 +------------+-------------+-------------+-----------------+ <-- min LBFGS
  

--------------------------------------------------------------------------------
 LBFGS: starting iteration         2 with trial guess (lambda=  1.000000)
--------------------------------------------------------------------------------
 
                           -------------------------------
                                     Cell Contents
                           -------------------------------
 
            xxxxxxxxxxxxxxxxxxxxxxxxxxxxxxxxxxxxxxxxxxxxxxxxxxxxxxxxxxxxxxxxx
            x  Element         Atom        Fractional coordinates of atoms  x
            x                 Number           u          v          w      x
            x---------------------------------------------------------------x
            x  H                 1         0.603913   0.488546   0.518910   x
            x  H                 2         0.654987   0.550791   0.541611   x
            x  H                 3         0.437401   0.508960   0.540082   x
            x  H                 4         0.486454   0.571583   0.563232   x
            x  H                 5         0.615490   0.636402   0.471662   x
            x  H                 6         0.706497   0.611207   0.497731   x
            x  H                 7         0.688289   0.495951   0.478860   x
            x  H                 8         0.732478   0.554789   0.454150   x
            x  H                 9         0.621839   0.482488   0.427980   x
            x  H                10         0.568873   0.559804   0.428410   x
            x  H                11         0.480114   0.377953   0.475702   x
            x  H                12         0.386018   0.460936   0.412437   x
            x  H                13         0.345055   0.532295   0.473024   x
            x  H                14         0.494332   0.566236   0.496609   x
            x  H                15         0.546345   0.625179   0.519022   x
            x  H                16         0.545893   0.426965   0.565170   x
            x  H                17         0.595042   0.488434   0.588216   x
            x  H                18         0.460348   0.428888   0.614176   x
            x  H                19         0.374879   0.448446   0.585680   x
            x  H                20         0.424118   0.510931   0.608839   x
            x  C                 1         0.587550   0.533588   0.530768   x
            x  C                 2         0.503534   0.524327   0.552404   x
            x  C                 3         0.642598   0.595643   0.485013   x
            x  C                 4         0.665988   0.538132   0.465534   x
            x  C                 5         0.587847   0.518471   0.442777   x
            x  C                 6         0.528516   0.473427   0.576028   x
            x  C                 7         0.441506   0.465114   0.597398   x
            x  N                 1         0.567234   0.579498   0.508688   x
            x  O                 1         0.406634   0.439242   0.428718   x
            x  O                 2         0.415253   0.538530   0.471613   x
            x  O                 3         0.501321   0.419053   0.478041   x
            x  Si                1         0.471900   0.474702   0.453746   x
            xxxxxxxxxxxxxxxxxxxxxxxxxxxxxxxxxxxxxxxxxxxxxxxxxxxxxxxxxxxxxxxxx
 
 
------------------------------------------------------------------------ <-- SCF
SCF loop      Energy                           Energy gain       Timer   <-- SCF
                                               per atom          (sec)   <-- SCF
------------------------------------------------------------------------ <-- SCF
Initial  -3.21325418E+003                                        134.16  <-- SCF
      1  -3.18934834E+003                   -7.47057312E-001     134.96  <-- SCF
      2  -3.19029167E+003                    2.94789648E-002     136.04  <-- SCF
      3  -3.18997273E+003                   -9.96693944E-003     137.05  <-- SCF
      4  -3.19005552E+003                    2.58718826E-003     138.06  <-- SCF
      5  -3.19007036E+003                    4.63861701E-004     139.27  <-- SCF
      6  -3.19007138E+003                    3.19315751E-005     140.29  <-- SCF
      7  -3.19007169E+003                    9.56632127E-006     141.08  <-- SCF
      8  -3.19007187E+003                    5.63196923E-006     141.92  <-- SCF
      9  -3.19007222E+003                    1.08016090E-005     142.72  <-- SCF
     10  -3.19007251E+003                    9.20700396E-006     143.49  <-- SCF
     11  -3.19007318E+003                    2.09333984E-005     144.28  <-- SCF
     12  -3.19007362E+003                    1.38528189E-005     145.05  <-- SCF
     13  -3.19007420E+003                    1.78955993E-005     145.82  <-- SCF
     14  -3.19007451E+003                    9.91436230E-006     146.60  <-- SCF
     15  -3.19007458E+003                    2.04597313E-006     147.38  <-- SCF
     16  -3.19007464E+003                    1.99786691E-006     148.16  <-- SCF
     17  -3.19007468E+003                    1.02517387E-006     148.93  <-- SCF
     18  -3.19007471E+003                    9.84293805E-007     149.71  <-- SCF
     19  -3.19007468E+003                   -9.78294441E-007     150.49  <-- SCF
------------------------------------------------------------------------ <-- SCF
 
Final energy =  -3190.074675452     eV
(energy not corrected for finite basis set)
 
(SEDC) Total Energy Correction : -0.859076E+00 eV

Dispersion corrected final energy* =  -3190.933751317     eV
 
[...]
 * H              17      0.00012              0.00120              0.00114         *
 * H              18      0.00051              0.00245             -0.00570         *
 * H              19      0.00402              0.00395              0.00200         *
 * H              20      0.00219             -0.00079             -0.00271         *
 * C               1     -0.00066              0.01205              0.00714         *
 * C               2     -0.00938             -0.00442             -0.00309         *
 * C               3     -0.00261              0.00839              0.00470         *
 * C               4     -0.00572             -0.00725             -0.00689         *
 * C               5      0.00557              0.00259             -0.00541         *
 * C               6     -0.00463             -0.00343              0.00327         *
 * C               7     -0.00283             -0.00413              0.00614         *
 * N               1      0.00048             -0.00327             -0.00248         *
 * O               1     -0.00415              0.00172             -0.00410         *
 * O               2     -0.01465             -0.00667              0.00640         *
 * O               3     -0.00277             -0.00807              0.00378         *
 * Si              1      0.00303              0.00627             -0.00533         *
 *                                                                                  *
 ************************************************************************************
 
 Pseudo atomic calculation performed for H 1s1
 
 Converged in 13 iterations to a total energy of -12.4790 eV
 
 Pseudo atomic calculation performed for C 2s2 2p2
 
 Converged in 17 iterations to a total energy of -148.5208 eV
 
 Pseudo atomic calculation performed for N 2s2 2p3
 
 Converged in 21 iterations to a total energy of -268.1820 eV
 
 Pseudo atomic calculation performed for O 2s2 2p4
 
 Converged in 23 iterations to a total energy of -432.6536 eV
 
 Pseudo atomic calculation performed for Si 3s2 3p2
 
 Converged in 11 iterations to a total energy of -165.0683 eV
Charge spilling parameter for spin component 1 = 1.52%
 
            Orbital Populations       
     Ion    Atom   Orbital             Charge
  -------------------------------------------
      H     1      S                    0.705
      H     2      S                    0.702
      H     3      S                    0.741
      H     4      S                    0.740
      H     5      S                    0.687
      H     6      S                    0.686
      H     7      S                    0.726
      H     8      S                    0.683
      H     9      S                    0.692
      H    10      S                    0.719
      H    11      S                    0.451
      H    12      S                    0.449
      H    13      S                    0.461
      H    14      S                    0.574
      H    15      S                    0.516
      H    16      S                    0.730
      H    17      S                    0.725
      H    18      S                    0.701
      H    19      S                    0.739
      H    20      S                    0.728
      C     1      S                    1.288
      C     1      Px                   1.131
      C     1      Py                   1.017
      C     1      Pz                   0.953
      C     2      S                    1.293
      C     2      Px                   1.053
      C     2      Py                   1.137
      C     2      Pz                   1.025
      C     3      S                    1.303
      C     3      Px                   1.013
      C     3      Py                   1.119
      C     3      Pz                   0.986
      C     4      S                    1.300
      C     4      Px                   1.123
      C     4      Py                   1.056
      C     4      Pz                   1.046
      C     5      S                    1.407
      C     5      Px                   1.185
      C     5      Py                   1.245
      C     5      Pz                   1.148
      C     6      S                    1.304
      C     6      Px                   1.097
      C     6      Py                   1.090
      C     6      Pz                   1.019
      C     7      S                    1.399
      C     7      Px                   1.059
      C     7      Py                   1.207
      C     7      Pz                   1.126
      N     1      S                    1.574
      N     1      Px                   1.370
      N     1      Py                   1.356
      N     1      Pz                   1.300
      O     1      S                    1.852
      O     1      Px                   1.828
      O     1      Py                   1.832
      O     1      Pz                   1.577
      O     2      S                    1.852
      O     2      Px                   1.567
      O     2      Py                   1.833
      O     2      Pz                   1.820
      O     3      S                    1.852
      O     3      Px                   1.891
      O     3      Py                   1.524
      O     3      Pz                   1.845
     Si     1      S                    0.741
     Si     1      Px                   0.452
     Si     1      Py                   0.324
     Si     1      Pz                   0.327
  -------------------------------------------
                           Total:      74.000
  -------------------------------------------
 
     Atomic Populations (Mulliken)
     -----------------------------
Species          Ion     s       p       d       f      Total   Charge (e)
==========================================================================
  H               1     0.705   0.000   0.000   0.000   0.705     0.295
  H               2     0.702   0.000   0.000   0.000   0.702     0.298
  H               3     0.741   0.000   0.000   0.000   0.741     0.259
  H               4     0.740   0.000   0.000   0.000   0.740     0.260
  H               5     0.687   0.000   0.000   0.000   0.687     0.313
  H               6     0.686   0.000   0.000   0.000   0.686     0.314
  H               7     0.726   0.000   0.000   0.000   0.726     0.274
  H               8     0.683   0.000   0.000   0.000   0.683     0.317
  H               9     0.692   0.000   0.000   0.000   0.692     0.308
  H              10     0.719   0.000   0.000   0.000   0.719     0.281
  H              11     0.451   0.000   0.000   0.000   0.451     0.549
  H              12     0.449   0.000   0.000   0.000   0.449     0.551
  H              13     0.461   0.000   0.000   0.000   0.461     0.539
  H              14     0.574   0.000   0.000   0.000   0.574     0.426
  H              15     0.516   0.000   0.000   0.000   0.516     0.484
  H              16     0.730   0.000   0.000   0.000   0.730     0.270
  H              17     0.725   0.000   0.000   0.000   0.725     0.275
  H              18     0.701   0.000   0.000   0.000   0.701     0.299
  H              19     0.739   0.000   0.000   0.000   0.739     0.261
  H              20     0.728   0.000   0.000   0.000   0.728     0.272
  C               1     1.288   3.101   0.000   0.000   4.389    -0.389
  C               2     1.293   3.215   0.000   0.000   4.509    -0.509
  C               3     1.303   3.118   0.000   0.000   4.421    -0.421
  C               4     1.300   3.225   0.000   0.000   4.525    -0.525
  C               5     1.407   3.577   0.000   0.000   4.984    -0.984
  C               6     1.304   3.206   0.000   0.000   4.510    -0.510
  C               7     1.399   3.392   0.000   0.000   4.791    -0.791
  N               1     1.574   4.026   0.000   0.000   5.600    -0.600
  O               1     1.852   5.238   0.000   0.000   7.089    -1.089
  O               2     1.852   5.219   0.000   0.000   7.071    -1.071
  O               3     1.852   5.260   0.000   0.000   7.111    -1.111
  Si              1     0.741   1.103   0.000   0.000   1.844     2.156
==========================================================================
 
                 Bond                   Population      Length (A)
======================================================================
              H 12 -- O 1                    0.53        0.96886
              H 11 -- O 3                    0.53        0.97032
              H 13 -- O 2                    0.52        0.97159
              H 15 -- N 1                    0.68        1.02871
              H 14 -- N 1                    0.64        1.05675
              H 1  -- C 1                    0.88        1.09700
              H 18 -- C 7                    0.81        1.09760
              H 6  -- C 3                    0.85        1.09803
              H 5  -- C 3                    0.84        1.09908
              H 20 -- C 7                    0.81        1.09916
              H 7  -- C 4                    0.85        1.09942
              H 2  -- C 1                    0.85        1.09973
              H 8  -- C 4                    0.84        1.09998
              H 19 -- C 7                    0.81        1.10085
              H 16 -- C 6                    0.84        1.10147
              H 9  -- C 5                    0.82        1.10208
              H 17 -- C 6                    0.84        1.10249
              H 3  -- C 2                    0.85        1.10297
              H 10 -- C 5                    0.81        1.10311
              H 4  -- C 2                    0.85        1.10440
               C 1 -- N 1                    0.52        1.50455
               C 3 -- N 1                    0.51        1.51091
               C 1 -- C 2                    0.71        1.51856
               C 3 -- C 4                    0.70        1.52522
               C 6 -- C 7                    0.65        1.52717
               C 2 -- C 6                    0.69        1.53113
               C 4 -- C 5                    0.65        1.54271
               O 1 -- Si 1                   0.54        1.63224
               O 3 -- Si 1                   0.50        1.64554
              H 14 -- H 15                  -0.11        1.67026
               O 2 -- Si 1                   0.42        1.68531
              H 14 -- O 2                    0.11        1.69826
              H 7  -- H 8                   -0.11        1.75158
              H 9  -- H 10                  -0.09        1.75991
              H 16 -- H 17                  -0.12        1.76788
              H 18 -- H 20                  -0.10        1.77446
              H 18 -- H 19                  -0.10        1.77856
              H 3  -- H 4                   -0.12        1.77863
              H 19 -- H 20                  -0.11        1.77965
              H 5  -- H 6                   -0.10        1.78397
              H 1  -- H 2                   -0.11        1.79426
               C 5 -- Si 1                   0.63        1.86756
              H 15 -- C 1                   -0.13        2.06908
              H 15 -- C 3                   -0.14        2.07738
              H 5  -- N 1                   -0.12        2.09974
              H 8  -- C 3                   -0.14        2.10062
              H 6  -- N 1                   -0.12        2.10127
              H 14 -- C 1                   -0.11        2.10412
              H 1  -- N 1                   -0.11        2.10522
              H 14 -- C 3                   -0.11        2.10635
              H 2  -- N 1                   -0.11        2.10673
              H 3  -- C 1                   -0.14        2.14593
              H 1  -- H 7                   -0.04        2.14821
              H 9  -- C 4                   -0.12        2.15173
              H 16 -- C 2                   -0.13        2.15914
              H 8  -- C 5                   -0.14        2.16083
              H 17 -- C 2                   -0.13        2.16192
              H 4  -- C 6                   -0.12        2.16302
              H 3  -- C 6                   -0.12        2.16371
              H 1  -- C 2                   -0.12        2.16428
              H 16 -- C 7                   -0.13        2.16493
              H 4  -- C 1                   -0.13        2.16576
              H 17 -- C 7                   -0.13        2.17044
              H 7  -- C 3                   -0.12        2.17078
              H 6  -- C 4                   -0.13        2.17156
              H 5  -- C 4                   -0.13        2.17167
              H 19 -- C 6                   -0.12        2.17629
              H 20 -- C 6                   -0.12        2.17757
              H 10 -- C 4                   -0.12        2.17822
              H 18 -- C 6                   -0.12        2.17970
              H 7  -- C 5                   -0.14        2.18358
              H 2  -- C 2                   -0.12        2.18414
              H 11 -- Si 1                  -0.12        2.27572
              H 12 -- Si 1                  -0.12        2.29660
              H 13 -- Si 1                  -0.12        2.30119
              H 5  -- H 15                  -0.04        2.32404
              H 6  -- H 8                   -0.05        2.35317
              H 13 -- H 14                  -0.02        2.36179
              H 6  -- H 15                  -0.03        2.38434
              H 8  -- H 9                   -0.05        2.38439
              H 5  -- H 14                  -0.03        2.40524
              H 1  -- H 14                  -0.03        2.41188
              H 2  -- H 15                  -0.03        2.41247
              H 9  -- Si 1                  -0.14        2.41476
              H 4  -- H 15                  -0.01        2.42293
              H 10 -- Si 1                  -0.12        2.46162
              H 1  -- H 3                   -0.04        2.46715
              H 2  -- H 6                   -0.01        2.47578
               C 2 -- N 1                   -0.14        2.48320
              H 4  -- H 17                  -0.04        2.48447
              H 3  -- H 14                  -0.01        2.48530
              H 17 -- H 18                  -0.03        2.50996
              H 16 -- H 18                  -0.03        2.51580
              H 16 -- H 19                  -0.03        2.51669
               C 1 -- C 6                   -0.15        2.52205
              H 5  -- H 10                  -0.01        2.52704
               C 2 -- C 7                   -0.16        2.52979
              H 5  -- H 8                   -0.02        2.53011
              H 3  -- H 16                  -0.03        2.53270
              H 3  -- H 19                  -0.01        2.53453
              H 17 -- H 20                  -0.03        2.53620
              H 7  -- H 9                   -0.02        2.53801
              H 8  -- H 10                  -0.03        2.53894
              H 1  -- H 16                  -0.01        2.54393
               C 1 -- C 3                   -0.13        2.55081
               C 4 -- N 1                   -0.12        2.55159
              H 2  -- H 4                   -0.03        2.55229
              H 6  -- H 7                   -0.02        2.56070
              H 4  -- H 20                  -0.01        2.59331
              H 2  -- H 17                  -0.01        2.59935
               C 3 -- C 5                   -0.15        2.60213
              H 1  -- O 3                    0.00        2.60393
              H 15 -- C 2                   -0.04        2.64157
               O 1 -- O 3                   -0.08        2.64162
               O 2 -- O 3                   -0.08        2.67333
              H 14 -- Si 1                  -0.04        2.68346
              H 14 -- C 2                   -0.03        2.69067
              H 11 -- O 1                   -0.01        2.69979
              H 4  -- N 1                   -0.03        2.70679
              H 16 -- C 1                   -0.04        2.70836
              H 3  -- N 1                   -0.02        2.72632
              H 3  -- C 7                   -0.04        2.72750
               N 1 -- O 2                   -0.13        2.73147
              H 2  -- C 3                   -0.04        2.73401
              H 6  -- C 1                   -0.04        2.75070
               O 1 -- O 2                   -0.07        2.75248
              H 7  -- N 1                   -0.02        2.77310
              H 14 -- C 4                   -0.03        2.77665
              H 5  -- C 5                   -0.04        2.77899
              H 1  -- C 3                   -0.02        2.78221
               C 5 -- O 2                   -0.12        2.78276
              H 17 -- C 1                   -0.03        2.78375
              H 20 -- C 2                   -0.04        2.78609
              H 7  -- C 1                   -0.03        2.78829
              H 1  -- C 4                   -0.03        2.78893
              H 2  -- C 6                   -0.03        2.78908
              H 4  -- C 7                   -0.03        2.78963
              H 19 -- C 2                   -0.04        2.79394
              H 10 -- C 3                   -0.04        2.80112
              H 1  -- C 6                   -0.03        2.80908
               C 5 -- O 3                   -0.10        2.89366
               C 4 -- Si 1                  -0.12        2.92341
              H 7  -- O 3                    0.00        2.92733
              H 10 -- O 2                   -0.01        2.93635
              H 13 -- O 1                   -0.01        2.94708
              H 1  -- H 15                   0.03        2.95005
              H 14 -- C 5                   -0.01        2.95879
               C 5 -- O 1                   -0.08        2.97780
              H 6  -- H 14                   0.03        2.98082
              H 2  -- H 14                   0.03        2.98729
              H 3  -- H 15                  -0.00        2.99435
======================================================================
 
 
     Hirshfeld Analysis
     ------------------
Species   Ion     Hirshfeld Charge (e)
======================================
  H        1                 0.05
  H        2                 0.06
  H        3                 0.04
  H        4                 0.04
  H        5                 0.07
  H        6                 0.07
  H        7                 0.05
  H        8                 0.06
  H        9                 0.06
  H       10                 0.05
  H       11                 0.18
  H       12                 0.19
  H       13                 0.18
  H       14                 0.11
  H       15                 0.17
  H       16                 0.04
  H       17                 0.05
  H       18                 0.05
  H       19                 0.04
  H       20                 0.04
  C        1                 0.01
  C        2                -0.06
  C        3                 0.01
  C        4                -0.05
  C        5                -0.15
  C        6                -0.05
  C        7                -0.10
  N        1                 0.02
  O        1                -0.27
  O        2                -0.24
  O        3                -0.27
  Si       1                 0.49
======================================
 

Writing analysis data to Conf_0002.castep_bin

Writing model to Conf_0002.check
 
 A BibTeX formatted list of references used in this run has been written to 
 Conf_0002.bib
 
Initialisation time =     24.89 s
Calculation time    =    779.71 s
Finalisation time   =      1.09 s
Total time          =    805.69 s
Peak Memory Use     = 7912108 kB
 
Overall parallel efficiency rating: Satisfactory (66%)
 
Data was distributed by:-
G-vector (48-way); efficiency rating: Satisfactory (67%)
High Water Mark     = 1759724 kB
