 Job started on host drago31020072.mgmt.cc.csic.es
 at Sun Mar 31 01:35:23 2024

 +-------------------------------------------------+
 |                                                 |
 |      CCC   AA    SSS  TTTTT  EEEEE  PPPP        |
 |     C     A  A  S       T    E      P   P       |
 |     C     AAAA   SS     T    EEE    PPPP        |
 |     C     A  A     S    T    E      P           |
 |      CCC  A  A  SSS     T    EEEEE  P           |
 |                                                 |
 +-------------------------------------------------+
 |                                                 |
 | Materials Studio CASTEP version 2024            |
 | Ab Initio Total Energy Program                  |
 |                                                 |
 | Authors:                                        |
 | M. Segall, M. Probert, C. Pickard, P. Hasnip,   |
 | S. Clark, K. Refson, J. R. Yates,               |
 | A. Bartok-Partay, M. Payne                      |
 |                                                 |
 | Contributors:                                   |
 | P. Lindan, P. Haynes, J. White, V. Milman,      |
 | N. Govind, M. Gibson, P. Tulip, V. Cocula,      |
 | B. Montanari, D. Quigley, M. Glover,            |
 | L. Bernasconi, A. Perlov, M. Plummer,           |
 | E. McNellis, J. Meyer, J. Gale, D. Jochym       |
 | J. Aarons, B. Walker, R. Gillen, D. Jones       |
 | T. Green, I. J. Bush, C. J. Armstrong,          |
 | E. J. Higgins, E. L. Brown, M. S. McFly,        |
 | J. Wilkins, B-C. Shih, P. J. P. Byrne,          |
 | R. J. Maurer, J. C. Womack, J. Dziedzic,        |
 | L. LeBlanc, T. K. Stenczel, J. Kermode,         |
 | S. Sturniolo, B. Shi, B. Durham, M. Evans,      |
 | M. J. Smith, A. Tamerus, Z. Hawkhead,           |
 | V. Ravindran, T. Hollins, S. A. Joyce,          |
 | R. T. Strong, A. M. Reilly                      |
 |                                                 |
 | Copyright (c) 2000 - 2023                       |
 |                                                 |
 | Please cite                                     |
 |                                                 |
 |     "First principles methods using CASTEP"     |
 |                                                 |
 |         Zeitschrift fuer Kristallographie       |
 |           220(5-6) pp. 567-570 (2005)           |
 |                                                 |
 | S. J. Clark, M. D. Segall, C. J. Pickard,       |
 | P. J. Hasnip, M. J. Probert, K. Refson,         |
 | M. C. Payne                                     |
 |                                                 |
 |       in all publications arising from          |
 |              your use of CASTEP                 |
 |                                                 |
 +-------------------------------------------------+
 |                                                 |
 |              http://www.castep.org              |
 |                                                 |
 +-------------------------------------------------+
 
 
 This version was compiled for x86_64-rhel7-intel19.0 on Oct 24 2023
 Code version:    a9f326b
 Intel(R) Math Kernel Library Version 2019.0.4 
 Fundamental constants values: CODATA 2018
 
License checkout of MS_castep successful
 
 
 Atomic calculation performed for H: 1s1
 
 Converged in 41 iterations to an ae energy of -12.488 eV
 
 Identity difference: 2.63E-05
 
   ============================================================                
   | Pseudopotential Report - Date of generation 31-03-2024   |                
   ------------------------------------------------------------                
   | Element: H Ionic charge:  1.00 Level of theory: PBE      |                
   | Atomic Solver: Koelling-Harmon                           |                
   |                                                          |                
   |               Reference Electronic Structure             |                
   |         Orbital         Occupation         Energy        |                
   |            1s              1.000           -0.239        |                
   |                                                          |                
   |                 Pseudopotential Definition               |                
   |        Beta     l      e      Rc     scheme   norm       |                
   |          1      0   -0.239   0.599     qc      0         |                
   |          2      0    0.250   0.599     qc      0         |                
   |         loc     1    0.000   0.599     pn      0         |                
   |                                                          |                
   | Augmentation charge Rinner = 0.421                       |                
   | No partial core correction                               |                
   ------------------------------------------------------------                
   | "1|0.6|9|10|15|10UU(qc=8)[]"                             |                
   ------------------------------------------------------------                
   |      Author: Chris J. Pickard, Cambridge University      |                
   ============================================================                
 
 Doing a self consistent calculation for the test configuration
 
 Atomic calculation performed for H: 1s1
 
 Converged in 41 iterations to an ae energy of -12.488 eV
 
 ---------------------------------------
 AE eigenvalue nl 10 =       -0.23860176
 ---------------------------------------
 PS eigenvalue nl 10 =       -0.23857601
 ---------------------------------------
 Maximum eigenvalue error:   2.57E-05
 
 Derived cutoff energies: C=   1 M=   6 F=  10 E=  20
 
 Checking for ghost states up to   1.51185 Ha
 
 No Ghost States Identified
 
 ***************************************
 
 Atomic calculation performed for C: 1s2 2s2 2p2
 
 Converged in 54 iterations to an ae energy of -1027.632 eV
 
 Identity difference: 2.37E-04
 
   ============================================================                
   | Pseudopotential Report - Date of generation 31-03-2024   |                
   ------------------------------------------------------------                
   | Element: C Ionic charge:  4.00 Level of theory: PBE      |                
   | Atomic Solver: Koelling-Harmon                           |                
   |                                                          |                
   |               Reference Electronic Structure             |                
   |         Orbital         Occupation         Energy        |                
   |            2s              2.000           -0.505        |                
   |            2p              2.000           -0.194        |                
   |                                                          |                
   |                 Pseudopotential Definition               |                
   |        Beta     l      e      Rc     scheme   norm       |                
   |          1      0   -0.505   1.395     qc      0         |                
   |          2      0    0.250   1.395     qc      0         |                
   |          3      1   -0.194   1.395     qc      0         |                
   |          4      1    0.250   1.395     qc      0         |                
   |         loc     2    0.000   1.395     pn      0         |                
   |                                                          |                
   | Augmentation charge Rinner = 0.983                       |                
   | Partial core correction Rc = 0.983                       |                
   ------------------------------------------------------------                
   | "2|1.4|11|12|14.7|20UU:21UU(qc=7)[]"                     |                
   ------------------------------------------------------------                
   |      Author: Chris J. Pickard, Cambridge University      |                
   ============================================================                
 
 Doing a self consistent calculation for the test configuration
 
 Atomic calculation performed for C: 1s2 2s2 2p2
 
 Converged in 54 iterations to an ae energy of -1027.632 eV
 
 ---------------------------------------
 AE eigenvalue nl 10 =      -10.04653081
 AE eigenvalue nl 20 =       -0.50533429
 AE eigenvalue nl 21 =       -0.19423807
 ---------------------------------------
 PS eigenvalue nl 20 =       -0.50531853
 PS eigenvalue nl 21 =       -0.19422214
 ---------------------------------------
 Maximum eigenvalue error:   1.59E-05
 
 Derived cutoff energies: C=   6 M=  10 F=  12 E=  16
 
 Checking for ghost states up to   1.47183 Ha
 
 No Ghost States Identified
 
 ***************************************
 
 Atomic calculation performed for N: 1s2 2s2 2p3
 
 Converged in 55 iterations to an ae energy of -1481.742 eV
 
 Identity difference: 2.27E-04
 
   ============================================================                
   | Pseudopotential Report - Date of generation 31-03-2024   |                
   ------------------------------------------------------------                
   | Element: N Ionic charge:  5.00 Level of theory: PBE      |                
   | Atomic Solver: Koelling-Harmon                           |                
   |                                                          |                
   |               Reference Electronic Structure             |                
   |         Orbital         Occupation         Energy        |                
   |            2s              2.000           -0.683        |                
   |            2p              3.000           -0.261        |                
   |                                                          |                
   |                 Pseudopotential Definition               |                
   |        Beta     l      e      Rc     scheme   norm       |                
   |          1      0   -0.683   1.100     qc      0         |                
   |          2      0    0.250   1.100     qc      0         |                
   |          3      1   -0.261   1.100     qc      0         |                
   |          4      1    0.250   1.100     qc      0         |                
   |         loc     2    0.000   1.100     pn      0         |                
   |                                                          |                
   | Augmentation charge Rinner = 0.769                       |                
   | Partial core correction Rc = 0.769                       |                
   ------------------------------------------------------------                
   | "2|1.1|12|16|19|20UU:21UU(qc=7)[]"                       |                
   ------------------------------------------------------------                
   |      Author: Chris J. Pickard, Cambridge University      |                
   ============================================================                
 
 Doing a self consistent calculation for the test configuration
 
 Atomic calculation performed for N: 1s2 2s2 2p3
 
 Converged in 55 iterations to an ae energy of -1481.742 eV
 
 ---------------------------------------
 AE eigenvalue nl 10 =      -14.13820921
 AE eigenvalue nl 20 =       -0.68290611
 AE eigenvalue nl 21 =       -0.26054797
 ---------------------------------------
 PS eigenvalue nl 20 =       -0.68291221
 PS eigenvalue nl 21 =       -0.26051708
 ---------------------------------------
 Maximum eigenvalue error:   3.09E-05
 
 Derived cutoff energies: C=  10 M=  15 F=  18 E=  23
 
 Checking for ghost states up to   1.48495 Ha
 
 No Ghost States Identified
 
 ***************************************
 
 Atomic calculation performed for O: 1s2 2s2 2p4
 
 Converged in 61 iterations to an ae energy of -2040.902 eV
 
 Identity difference: 4.10E-04
 
   ============================================================                
   | Pseudopotential Report - Date of generation 31-03-2024   |                
   ------------------------------------------------------------                
   | Element: O Ionic charge:  6.00 Level of theory: PBE      |                
   | Atomic Solver: Koelling-Harmon                           |                
   |                                                          |                
   |               Reference Electronic Structure             |                
   |         Orbital         Occupation         Energy        |                
   |            2s              2.000           -0.881        |                
   |            2p              4.000           -0.332        |                
   |                                                          |                
   |                 Pseudopotential Definition               |                
   |        Beta     l      e      Rc     scheme   norm       |                
   |          1      0   -0.881   1.100     qc      0         |                
   |          2      0    0.250   1.100     qc      0         |                
   |          3      1   -0.332   1.100     qc      0         |                
   |          4      1    0.250   1.100     qc      0         |                
   |         loc     2    0.000   1.100     pn      0         |                
   |                                                          |                
   | Augmentation charge Rinner = 0.769                       |                
   | Partial core correction Rc = 0.769                       |                
   ------------------------------------------------------------                
   | "2|1.1|14|18|21|20UU:21UU(qc=7)[]"                       |                
   ------------------------------------------------------------                
   |      Author: Chris J. Pickard, Cambridge University      |                
   ============================================================                
 
 Doing a self consistent calculation for the test configuration
 
 Atomic calculation performed for O: 1s2 2s2 2p4
 
 Converged in 61 iterations to an ae energy of -2040.902 eV
 
 ---------------------------------------
 AE eigenvalue nl 10 =      -18.91475256
 AE eigenvalue nl 20 =       -0.88057101
 AE eigenvalue nl 21 =       -0.33186952
 ---------------------------------------
 PS eigenvalue nl 20 =       -0.88059206
 PS eigenvalue nl 21 =       -0.33182157
 ---------------------------------------
 Maximum eigenvalue error:   4.80E-05
 
 Derived cutoff energies: C=  14 M=  17 F=  20 E=  22
 
 Checking for ghost states up to   1.49452 Ha
 
 No Ghost States Identified
 
 ***************************************
 
 Atomic calculation performed for Si: 1s2 2s2 2p6 3s2 3p2
 
 Converged in 54 iterations to an ae energy of -7886.857 eV
 
 Identity difference: 1.35E-04
 
   ============================================================                
   | Pseudopotential Report - Date of generation 31-03-2024   |                
   ------------------------------------------------------------                
   | Element: Si Ionic charge:  4.00 Level of theory: PBE     |                
   | Atomic Solver: Koelling-Harmon                           |                
   |                                                          |                
   |               Reference Electronic Structure             |                
   |         Orbital         Occupation         Energy        |                
   |            3s              2.000           -0.397        |                
   |            3p              2.000           -0.150        |                
   |                                                          |                
   |                 Pseudopotential Definition               |                
   |        Beta     l      e      Rc     scheme   norm       |                
   |          1      0   -0.397   1.797     qc      0         |                
   |          2      0    0.250   1.797     qc      0         |                
   |          3      1   -0.150   1.797     qc      0         |                
   |          4      1    0.250   1.797     qc      0         |                
   |          5      2    0.000   1.797     qc      0         |                
   |          6      2    0.250   1.797     qc      0         |                
   |         loc     3    0.000   1.797     pn      0         |                
   |                                                          |                
   | Augmentation charge Rinner = 1.255                       |                
   | Partial core correction Rc = 1.255                       |                
   ------------------------------------------------------------                
   | "3|1.8|3.6|5|7|30UU:31UU:32UU[]"                         |                
   ------------------------------------------------------------                
   |      Author: Chris J. Pickard, Cambridge University      |                
   ============================================================                
 
 Doing a self consistent calculation for the test configuration
 
 Atomic calculation performed for Si: 1s2 2s2 2p6 3s2 3p2
 
 Converged in 54 iterations to an ae energy of -7886.857 eV
 
 ---------------------------------------
 AE eigenvalue nl 10 =      -65.63192903
 AE eigenvalue nl 20 =       -5.12654326
 AE eigenvalue nl 21 =       -3.51173659
 AE eigenvalue nl 30 =       -0.39736430
 AE eigenvalue nl 31 =       -0.14998156
 ---------------------------------------
 PS eigenvalue nl 30 =       -0.39734922
 PS eigenvalue nl 31 =       -0.14996719
 ---------------------------------------
 Maximum eigenvalue error:   1.51E-05
 
 Derived cutoff energies: C=   1 M=   3 F=   6 E=   6
 
 Checking for ghost states up to   1.41161 Ha
 
 No Ghost States Identified
 
 ***************************************
 
 Pseudo atomic calculation performed for H 1s1
 
 Converged in 13 iterations to a total energy of -12.4790 eV
 
 Pseudo atomic calculation performed for C 2s2 2p2
 
 Converged in 17 iterations to a total energy of -148.5208 eV
 
 Pseudo atomic calculation performed for N 2s2 2p3
 
 Converged in 21 iterations to a total energy of -268.1820 eV
 
 Pseudo atomic calculation performed for O 2s2 2p4
 
 Converged in 23 iterations to a total energy of -432.6536 eV
 
 Pseudo atomic calculation performed for Si 3s2 3p2
 
 Converged in 11 iterations to a total energy of -165.0683 eV
 Calculation parallelised over 48 processes.
 Data is distributed by G-vector(48-way)

 ************************************ Title ************************************
 CASTEP calculation from BIOVIA Materials Studio 2024

 ***************************** General Parameters ******************************
  
 output verbosity                               : normal  (1)
 write checkpoint data to                       : Conf_0030.check
 type of calculation                            : geometry optimization
 stress calculation                             : off
 density difference calculation                 : off
 electron localisation func (ELF) calculation   : off
 Hirshfeld analysis                             : on
 polarisation (Berry phase) analysis            : off
 molecular orbital projected DOS                : off
 deltaSCF calculation                           : off
 unlimited duration calculation
 timing information                             : on
 memory usage estimate                          : on
 write extra output files                       : on
 write final potential to formatted file        : off
 write final density to formatted file          : off
 write BibTeX reference list                    : on
 write OTFG pseudopotential files               : on
 write electrostatic potential file             : on
 write bands file                               : on
 checkpoint writing                             : both castep_bin and check files
  
 output         length unit                     : A
 output           mass unit                     : amu
 output           time unit                     : ps
 output         charge unit                     : e
 output           spin unit                     : hbar/2
 output         energy unit                     : eV
 output          force unit                     : eV/A
 output       velocity unit                     : A/ps
 output       pressure unit                     : GPa
 output     inv_length unit                     : 1/A
 output      frequency unit                     : cm-1
 output force constant unit                     : eV/A**2
 output         volume unit                     : A**3
 output   IR intensity unit                     : (D/A)**2/amu
 output         dipole unit                     : D
 output         efield unit                     : eV/A/e
 output        entropy unit                     : J/mol/K
 output    efield chi2 unit                     : pm/V
  
 wavefunctions paging                           : none
 random number generator seed                   :   13526190
 data distribution                              : optimal for this architecture
 optimization strategy                          : balance speed and memory

 *********************** Exchange-Correlation Parameters ***********************
  
 using functional                               : Perdew Burke Ernzerhof
 relativistic treatment                         : Koelling-Harmon
 DFT+D: Semi-empirical dispersion correction    : on
 SEDC with                                      : G06 correction scheme

 ************************* Pseudopotential Parameters **************************
  
 pseudopotential representation                 : reciprocal space
 <beta|phi> representation                      : reciprocal space
 spin-orbit coupling                            : off

 **************************** Basis Set Parameters *****************************
  
 plane wave basis set cut-off                   :   600.0000   eV
 size of standard grid                          :     1.5000
 size of   fine   gmax                          :    18.8237   1/A
 largest prime factor in FFT                    :          5
 finite basis set correction                    : none

 **************************** Electronic Parameters ****************************
  
 number of  electrons                           :  74.00    
 net charge of system                           : +1.000    
 treating system as non-spin-polarized
 number of bands                                :         37

 ********************* Electronic Minimization Parameters **********************
  
 Method: Treating system as non-metallic,
         and number of  SD  steps               :          1
         and number of  CG  steps               :          4
  
 total energy / atom convergence tol.           : 0.2000E-05   eV
 eigen-energy convergence tolerance             : 0.1000E-05   eV
 max force / atom convergence tol.              : ignored
 convergence tolerance window                   :          3   cycles
 max. number of SCF cycles                      :        100
 periodic dipole correction                     : NONE

 ************************** Density Mixing Parameters **************************
  
 density-mixing scheme                          : Pulay
 max. length of mixing history                  :         20
 charge density mixing amplitude                : 0.5000    
 cut-off energy for mixing                      :  600.0       eV
 charge density mixing g-vector                 :  1.500       1/A

 *********************** Population Analysis Parameters ************************
  
 Population analysis with cutoff                :  3.000       A
 Population analysis output                     : summary and pdos components

 ********************** Geometry Optimization Parameters ***********************
  
 optimization method                            : LBFGS
 max. no. of LBFGS updates                      : unbounded
 preconditioned LBFGS is activated
 preconditioner type                            : EXP
     stabilization constant                     :     0.1000
     parameter A                                :     3.0000
     nearest neighbor distance                  : automatic
     cut-off distance                           : automatic
     parameter mu                               : automatic
 variable cell method                           : fixed basis quality
 max. number of steps                           :        300
 estimated bulk modulus                         :  500.0       GPa
 estimated <frequency>                          :  1668.       cm-1
 geom line minimiser                            : on
 with line minimiser tolerance                  :     0.4000
 total energy convergence tolerance             : 0.2000E-04   eV/atom
        max ionic |force| tolerance             : 0.5000E-01   eV/A
 max ionic |displacement| tolerance             : 0.2000E-02   A
   max |stress component| tolerance             : 0.1000       GPa
 convergence tolerance window                   :          2   steps
 backup results every                           :          5   steps
 write geom trajectory file                     : on

 *******************************************************************************
  
 
                           -------------------------------
                                      Unit Cell
                           -------------------------------
        Real Lattice(A)                      Reciprocal Lattice(1/A)
    13.4840002    -0.0000006    -0.0000006        0.465973392   0.000000000   0.000000000
     0.0000000    20.4006996    -0.0000009        0.000000013   0.307988717   0.000000000
     0.0000000     0.0000000    45.0000000        0.000000006   0.000000006   0.139626340
 
                       Lattice parameters(A)       Cell Angles
                    a =     13.484000          alpha =   90.000003
                    b =     20.400700          beta  =   90.000003
                    c =     45.000000          gamma =   90.000003
 
                       Current cell volume =         12378.736702       A**3
                                   density =             0.015698   AMU/A**3
                                           =             0.026068     g/cm^3
 
                           -------------------------------
                                     Cell Contents
                           -------------------------------
                         Total number of ions in cell =   32
                      Total number of species in cell =    5
                        Max number of any one species =   20
 
            xxxxxxxxxxxxxxxxxxxxxxxxxxxxxxxxxxxxxxxxxxxxxxxxxxxxxxxxxxxx
            x  Element    Atom        Fractional coordinates of atoms  x
            x            Number           u          v          w      x
            x----------------------------------------------------------x
            x  H            1         0.547192   0.517978   0.533709   x 
            x  H            2         0.580977   0.585129   0.557480   x 
            x  H            3         0.405264   0.490258   0.568006   x 
            x  H            4         0.438482   0.556431   0.591674   x 
            x  H            5         0.433548   0.670099   0.500309   x 
            x  H            6         0.552272   0.665448   0.517642   x 
            x  H            7         0.590552   0.562386   0.489478   x 
            x  H            8         0.556462   0.627221   0.465678   x 
            x  H            9         0.384829   0.581797   0.460557   x 
            x  H           10         0.414322   0.516533   0.484922   x 
            x  H           11         0.555247   0.527539   0.390910   x 
            x  H           12         0.414244   0.429694   0.404249   x 
            x  H           13         0.609425   0.420868   0.432894   x 
            x  H           14         0.387900   0.570933   0.525558   x 
            x  H           15         0.415171   0.631060   0.548452   x 
            x  H           16         0.569773   0.436771   0.578095   x 
            x  H           17         0.602982   0.502739   0.601678   x 
            x  H           18         0.540162   0.407866   0.631377   x 
            x  H           19         0.425835   0.409581   0.611691   x 
            x  H           20         0.459045   0.476011   0.635401   x 
            x  C            1         0.519190   0.553778   0.550021   x 
            x  C            2         0.468527   0.519617   0.576108   x 
            x  C            3         0.491144   0.635932   0.508340   x 
            x  C            4         0.527127   0.593055   0.482640   x 
            x  C            5         0.446209   0.550380   0.468364   x 
            x  C            6         0.539158   0.474313   0.593235   x 
            x  C            7         0.488272   0.440100   0.619337   x 
            x  N            1         0.443688   0.598773   0.533704   x 
            x  O            1         0.403038   0.455460   0.421449   x 
            x  O            2         0.579502   0.449767   0.446760   x 
            x  O            3         0.537648   0.545832   0.409550   x 
            x  Si           1         0.492122   0.499338   0.435624   x 
            xxxxxxxxxxxxxxxxxxxxxxxxxxxxxxxxxxxxxxxxxxxxxxxxxxxxxxxxxxxx
 
 
                         No user defined ionic velocities
 
                           -------------------------------
                                   Details of Species
                           -------------------------------
 
                               Mass of species in AMU
                                    H    1.0080000
                                    C   12.0109997
                                    N   14.0070000
                                    O   15.9989996
                                    Si   28.0849991
 
                          Electric Quadrupole Moment (Barn)
                                    H    0.0028600 Isotope  2
                                    C    0.0332700 Isotope 11
                                    N    0.0204400 Isotope 14
                                    O   -0.0255800 Isotope 17
                                    Si    1.0000000 No Isotope Defined
 
                          Files used for pseudopotentials:
                                    H 1|0.6|9|10|15|10UU(qc=8)[]
                                    C 2|1.4|11|12|14.7|20UU:21UU(qc=7)[]
                                    N 2|1.1|12|16|19|20UU:21UU(qc=7)[]
                                    O 2|1.1|14|18|21|20UU:21UU(qc=7)[]
                                    Si 3|1.8|3.6|5|7|30UU:31UU:32UU[]
 
                           -------------------------------
                              k-Points For BZ Sampling
                           -------------------------------
                       MP grid size for SCF calculation is  1  1  1
                            with an offset of   0.000  0.000  0.000
                       Number of kpoints used =             1
 
                           -------------------------------
                               Symmetry and Constraints
                           -------------------------------
 
                      Maximum deviation from symmetry =  0.00000         ANG
 
                      Number of symmetry operations   =           1
                      Number of nonlinear constraints =           3
         There are no ionic constraints specified or generated for this cell
                      Point group of crystal =     1: C1, 1, 1
                      Space group of crystal =     1: P1, P 1
 
             Set iprint > 1 for details on symmetry rotations/translations
 
                         Centre of mass is NOT constrained
 
                         Number of cell constraints= 6
                         Cell constraints are:  0 0 0 0 0 0
 
                         External pressure/stress (GPa)
                          0.00000   0.00000   0.00000
                                    0.00000   0.00000
                                              0.00000
 
                                --------------------
                                  DFT-D parameters
                                --------------------
 
                          Dispersion-correction scheme : G06       
                        Parameter s6 :   0.750000 (default)
                        Parameter d  :  20.000000 (default)
 
        xxxxxxxxxxxxxxxxxxxxxxxxxxxxxxxxxxxxxxxxxxxxxxxxxxxxxxxxxxxxxxxxxxxx
        x              Atomic DFT-D parameters                             x
        x  Species      C6            R0                                   x
        x               eV A^6        Ang                                  x
        x------------------------------------------------------------------x
        x  H             1.4510       1.0010   (default)                   x
        x  C            18.1375       1.4520   (default)                   x
        x  N            12.7481       1.3970   (default)                   x
        x  O             7.2550       1.3420   (default)                   x
        x  Si           95.6622       1.7160   (default)                   x
        xxxxxxxxxxxxxxxxxxxxxxxxxxxxxxxxxxxxxxxxxxxxxxxxxxxxxxxxxxxxxxxxxxxx
 
 
+---------------- MEMORY AND SCRATCH DISK ESTIMATES PER PROCESS --------------+
|                                                     Memory          Disk    |
| Baseline code, static data and system overhead     6530.0 MB         0.0 MB |
| BLAS internal memory storage                          0.0 MB         0.0 MB |
| Model and support data                              540.6 MB         0.0 MB |
| Electronic energy minimisation requirements          31.8 MB         0.0 MB |
| Force calculation requirements                        6.8 MB         0.0 MB |
|                                               ----------------------------- |
| Approx. total storage required per process         7102.3 MB         0.0 MB |
|                                                                             |
| Requirements will fluctuate during execution and may exceed these estimates |
+-----------------------------------------------------------------------------+
Calculating approximate eigenstates for fixed initial Hamiltonian
Cut-off for approx. calculation is  119.774 eV
Improving approx. states at cut-off of  300.000 eV
Resetting cut-off to  600.000 eV
Calculating total energy with cut-off of  600.000 eV.
------------------------------------------------------------------------ <-- SCF
SCF loop      Energy                           Energy gain       Timer   <-- SCF
                                               per atom          (sec)   <-- SCF
------------------------------------------------------------------------ <-- SCF
Initial  -2.93746771E+003                                         30.29  <-- SCF
      1  -3.20284633E+003                    8.29308200E+000      31.13  <-- SCF
      2  -3.20347775E+003                    1.97316492E-002      32.04  <-- SCF
      3  -3.19274378E+003                   -3.35436468E-001      33.06  <-- SCF
      4  -3.19155224E+003                   -3.72355313E-002      34.23  <-- SCF
      5  -3.19094728E+003                   -1.89049527E-002      35.23  <-- SCF
      6  -3.19085943E+003                   -2.74528337E-003      36.52  <-- SCF
      7  -3.19079672E+003                   -1.95989102E-003      37.52  <-- SCF
      8  -3.19078881E+003                   -2.47222630E-004      38.64  <-- SCF
      9  -3.19077743E+003                   -3.55415948E-004      39.63  <-- SCF
     10  -3.19076133E+003                   -5.03105881E-004      40.66  <-- SCF
     11  -3.19073076E+003                   -9.55376004E-004      41.68  <-- SCF
     12  -3.19067912E+003                   -1.61375204E-003      42.70  <-- SCF
     13  -3.19061391E+003                   -2.03782301E-003      43.72  <-- SCF
     14  -3.19054514E+003                   -2.14913884E-003      44.70  <-- SCF
     15  -3.19049501E+003                   -1.56646652E-003      45.70  <-- SCF
     16  -3.19045549E+003                   -1.23506084E-003      46.72  <-- SCF
     17  -3.19041824E+003                   -1.16390818E-003      47.70  <-- SCF
     18  -3.19039543E+003                   -7.12968136E-004      48.67  <-- SCF
     19  -3.19037052E+003                   -7.78504781E-004      49.64  <-- SCF
     20  -3.19034427E+003                   -8.20385993E-004      50.58  <-- SCF
     21  -3.19032251E+003                   -6.79924340E-004      51.49  <-- SCF
     22  -3.19031328E+003                   -2.88425191E-004      52.39  <-- SCF
     23  -3.19031046E+003                   -8.81088986E-005      53.38  <-- SCF
     24  -3.19031310E+003                    8.25753166E-005      54.27  <-- SCF
     25  -3.19031560E+003                    7.81247073E-005      55.13  <-- SCF
     26  -3.19032024E+003                    1.45022815E-004      55.92  <-- SCF
     27  -3.19032477E+003                    1.41625585E-004      56.74  <-- SCF
     28  -3.19032662E+003                    5.76962721E-005      57.52  <-- SCF
     29  -3.19033046E+003                    1.20017648E-004      58.31  <-- SCF
     30  -3.19033239E+003                    6.02902069E-005      59.10  <-- SCF
     31  -3.19033483E+003                    7.62762402E-005      59.89  <-- SCF
     32  -3.19033610E+003                    3.97797217E-005      60.68  <-- SCF
     33  -3.19033747E+003                    4.26480843E-005      61.50  <-- SCF
     34  -3.19033825E+003                    2.45424912E-005      62.30  <-- SCF
     35  -3.19033905E+003                    2.48794296E-005      63.08  <-- SCF
     36  -3.19033990E+003                    2.65533635E-005      63.87  <-- SCF
     37  -3.19034018E+003                    8.68448265E-006      64.66  <-- SCF
     38  -3.19034067E+003                    1.52424233E-005      65.45  <-- SCF
     39  -3.19034091E+003                    7.68189996E-006      66.23  <-- SCF
     40  -3.19034125E+003                    1.05269945E-005      67.02  <-- SCF
     41  -3.19034142E+003                    5.30318102E-006      67.81  <-- SCF
     42  -3.19034154E+003                    3.68306745E-006      68.59  <-- SCF
     43  -3.19034168E+003                    4.36221614E-006      69.38  <-- SCF
     44  -3.19034177E+003                    3.05003939E-006      70.17  <-- SCF
     45  -3.19034184E+003                    2.17753825E-006      70.96  <-- SCF
     46  -3.19034187E+003                    8.69359174E-007      71.75  <-- SCF
     47  -3.19034189E+003                    6.54955184E-007      72.54  <-- SCF
------------------------------------------------------------------------ <-- SCF
 
Final energy =  -3190.341891407     eV
(energy not corrected for finite basis set)
 
(SEDC) Total Energy Correction : -0.769888E+00 eV

Dispersion corrected final energy* =  -3191.111779498     eV

Writing analysis data to Conf_0030.castep_bin

Writing model to Conf_0030.check

WARNING - nonlinear constraints cannot be used with LBFGS algorithm
        - consider setting geom_method=DELOCALIZED
 
        => Turning nonlinear constraints OFF
 
+---------------- MEMORY AND SCRATCH DISK ESTIMATES PER PROCESS --------------+
|                                                     Memory          Disk    |
| Model and support data                              550.1 MB         0.0 MB |
| Electronic energy minimisation requirements          31.8 MB         0.0 MB |
| Geometry minimisation requirements                   34.8 MB         0.0 MB |
|                                               ----------------------------- |
| Approx. total storage required per process          616.7 MB         0.0 MB |
|                                                                             |
| Requirements will fluctuate during execution and may exceed these estimates |
+-----------------------------------------------------------------------------+
 
 
 ************************************** Forces **************************************
 *                                                                                  *
 *                           Cartesian components (eV/A)                            *
 * -------------------------------------------------------------------------------- *
 *                         x                    y                    z              *
 *                                                                                  *
 * H               1     -0.12439              0.21006             -0.01912         *
 * H               2     -0.16159              0.06871             -0.15719         *
 * H               3     -0.01596              0.05470             -0.03925         *
 * H               4      0.00611              0.01532             -0.02707         *
 * H               5      0.11531             -0.08785              0.01893         *
 * H               6     -0.16658             -0.15061              0.09083         *
 * H               7     -0.08120              0.10526              0.00696         *
 * H               8      0.00022             -0.06078              0.22292         *
 * H               9      0.04747             -0.08081             -0.06694         *
 * H              10     -0.01387             -0.18275             -0.07356         *
 * H              11      0.22782             -0.30493             -0.90489         *
 * H              12      0.08876             -0.56811             -0.83328         *
 * H              13      0.46263             -0.61063             -0.60876         *
 * H              14     -0.55188             -0.43916             -0.18930         *
 * H              15     -0.30572              0.33674              0.49878         *
 * H              16     -0.01760              0.12571             -0.01685         *
 * H              17     -0.09350             -0.00387             -0.11842         *
 * H              18     -0.06889              0.10488             -0.12685         *
 * H              19      0.04916              0.07252              0.01786         *
 * H              20      0.04575             -0.03592             -0.06023         *
 * C               1     -0.57501             -0.04030              0.18172         *
 * C               2      0.00373             -0.00154              0.01518         *
 * C               3     -0.13286              0.56242             -0.45320         *
 * C               4      0.16017             -0.09504             -0.10592         *
 * C               5      0.08044             -0.06554             -0.22241         *
 * C               6      0.26714             -0.10344              0.02218         *
 * C               7     -0.12070             -0.02112              0.09731         *
 * N               1      1.91376             -0.69812             -0.21373         *
 * O               1     -1.04734              0.46414              1.07881         *
 * O               2      0.06397              0.45103              1.57921         *
 * O               3     -0.11144              1.33384              0.91004         *
 * Si              1      0.05609             -0.35481             -0.50378         *
 *                                                                                  *
 ************************************************************************************
 EXP precond LBFGS => estimated nearest neighbor distance :  1.628       A
 EXP precond LBFGS => estimated cutoff distance :  3.256       A
 doing test perturbation to get energy scale for EXP preconditioner
 
                           -------------------------------
                                     Cell Contents
                           -------------------------------
 
            xxxxxxxxxxxxxxxxxxxxxxxxxxxxxxxxxxxxxxxxxxxxxxxxxxxxxxxxxxxxxxxxx
            x  Element         Atom        Fractional coordinates of atoms  x
            x                 Number           u          v          w      x
            x---------------------------------------------------------------x
            x  H                 1         0.547975   0.518711   0.534005   x
            x  H                 2         0.581613   0.585759   0.557754   x
            x  H                 3         0.406439   0.491021   0.568271   x
            x  H                 4         0.439603   0.557111   0.591913   x
            x  H                 5         0.434678   0.670540   0.500630   x
            x  H                 6         0.553034   0.665902   0.517951   x
            x  H                 7         0.591144   0.563056   0.489807   x
            x  H                 8         0.557206   0.627765   0.466020   x
            x  H                 9         0.386024   0.582434   0.460901   x
            x  H                10         0.415484   0.517268   0.485254   x
            x  H                11         0.555997   0.528261   0.391271   x
            x  H                12         0.415407   0.430490   0.404610   x
            x  H                13         0.609926   0.421666   0.433249   x
            x  H                14         0.389093   0.571589   0.525861   x
            x  H                15         0.416333   0.631595   0.548735   x
            x  H                16         0.570460   0.437565   0.578348   x
            x  H                17         0.603514   0.503490   0.601905   x
            x  H                18         0.540973   0.408664   0.631569   x
            x  H                19         0.426980   0.410379   0.611907   x
            x  H                20         0.460120   0.476785   0.635587   x
            x  C                 1         0.520081   0.554462   0.550302   x
            x  C                 2         0.469578   0.520349   0.576363   x
            x  C                 3         0.492130   0.636456   0.508656   x
            x  C                 4         0.527989   0.593670   0.482973   x
            x  C                 5         0.447314   0.551069   0.468704   x
            x  C                 6         0.539973   0.475088   0.593472   x
            x  C                 7         0.489266   0.440894   0.619544   x
            x  N                 1         0.444798   0.599377   0.534000   x
            x  O                 1         0.404216   0.456247   0.421806   x
            x  O                 2         0.580145   0.450556   0.447110   x
            x  O                 3         0.538469   0.546529   0.409910   x
            x  Si                1         0.493105   0.500092   0.435978   x
            xxxxxxxxxxxxxxxxxxxxxxxxxxxxxxxxxxxxxxxxxxxxxxxxxxxxxxxxxxxxxxxxx
 
 
------------------------------------------------------------------------ <-- SCF
SCF loop      Energy                           Energy gain       Timer   <-- SCF
                                               per atom          (sec)   <-- SCF
------------------------------------------------------------------------ <-- SCF
Initial  -3.19290079E+003                                         74.55  <-- SCF
      1  -3.19031398E+003                   -8.08376736E-002      75.35  <-- SCF
      2  -3.19033942E+003                    7.95083451E-004      76.53  <-- SCF
      3  -3.19031059E+003                   -9.01155957E-004      77.53  <-- SCF
      4  -3.19033028E+003                    6.15286718E-004      78.52  <-- SCF
      5  -3.19033037E+003                    3.07526383E-006      79.37  <-- SCF
      6  -3.19033065E+003                    8.56884564E-006      80.14  <-- SCF
      7  -3.19033071E+003                    1.95640830E-006      80.90  <-- SCF
      8  -3.19033078E+003                    2.13415655E-006      81.66  <-- SCF
      9  -3.19033083E+003                    1.50030260E-006      82.42  <-- SCF
     10  -3.19033088E+003                    1.58175453E-006      83.19  <-- SCF
     11  -3.19033091E+003                    1.15292988E-006      83.95  <-- SCF
     12  -3.19033094E+003                    9.22658306E-007      84.72  <-- SCF
     13  -3.19033097E+003                    8.88823474E-007      85.49  <-- SCF
------------------------------------------------------------------------ <-- SCF
 
Final energy =  -3190.330972367     eV
(energy not corrected for finite basis set)
 
(SEDC) Total Energy Correction : -0.770680E+00 eV

Dispersion corrected final energy* =  -3191.101652423     eV
 
 ************************************** Forces **************************************
 *                                                                                  *
 *                           Cartesian components (eV/A)                            *
 * -------------------------------------------------------------------------------- *
 *                         x                    y                    z              *
 *                                                                                  *
 * H               1     -0.10895              0.17038             -0.05382         *
 * H               2     -0.07485              0.11757             -0.12401         *
 * H               3     -0.07121              0.02642             -0.04455         *
 * H               4     -0.02959              0.04517              0.00900         *
 * H               5      0.05302             -0.03652              0.00936         *
 * H               6     -0.09491             -0.09920              0.12277         *
 * H               7      0.00877              0.04525              0.03464         *
 * H               8      0.02562             -0.03449              0.19342         *
 * H               9     -0.00377             -0.05653             -0.06938         *
 * H              10     -0.05125             -0.22203             -0.06662         *
 * H              11      0.25329             -0.27610             -0.93005         *
 * H              12      0.07164             -0.58319             -0.83407         *
 * H              13      0.48159             -0.66996             -0.63601         *
 * H              14     -0.61838             -0.48090             -0.21571         *
 * H              15     -0.35413              0.39562              0.53433         *
 * H              16      0.00352              0.08559             -0.04321         *
 * H              17     -0.00351              0.04520             -0.07993         *
 * H              18     -0.02795              0.11401             -0.09657         *
 * H              19     -0.01168              0.04385              0.00445         *
 * H              20      0.01512             -0.02385             -0.02580         *
 * C               1     -0.60269             -0.06295              0.16071         *
 * C               2     -0.03600             -0.00027              0.01599         *
 * C               3     -0.15718              0.53577             -0.45272         *
 * C               4      0.13938             -0.06816             -0.10887         *
 * C               5      0.04520             -0.09186             -0.23386         *
 * C               6      0.25187             -0.14045              0.00520         *
 * C               7     -0.15251             -0.00693              0.10275         *
 * N               1      2.11910             -0.70022             -0.27722         *
 * O               1     -1.11717              0.42167              1.05558         *
 * O               2      0.13217              0.41226              1.63941         *
 * O               3     -0.09225              1.38967              0.88279         *
 * Si              1      0.00771             -0.29482             -0.47802         *
 *                                                                                  *
 ************************************************************************************
 EXP precond LBFGS => estimated parameter mu :  1.785       eV/A**2
 LBFGS: finished iteration     0 with enthalpy= -3.19111178E+003 eV
  
 +-----------+-----------------+-----------------+------------+-----+ <-- LBFGS
 | Parameter |      value      |    tolerance    |    units   | OK? | <-- LBFGS
 +-----------+-----------------+-----------------+------------+-----+ <-- LBFGS
 |  dE/ion   |   0.000000E+000 |   2.000000E-005 |         eV | No  | <-- LBFGS
 |  |F|max   |   2.248946E+000 |   5.000000E-002 |       eV/A | No  | <-- LBFGS
 |  |dR|max  |   5.536266E-015 |   2.000000E-003 |          A | No  | <-- LBFGS
 +-----------+-----------------+-----------------+------------+-----+ <-- LBFGS
  

================================================================================
 Starting LBFGS iteration          1 ...
================================================================================
  
 +------------+-------------+-------------+-----------------+ <-- min LBFGS
 |    Step    |   lambda    |   F.delta'  |    enthalpy     | <-- min LBFGS
 +------------+-------------+-------------+-----------------+ <-- min LBFGS
 |  previous  |    0.000000 |    1.842108 |    -3191.111779 | <-- min LBFGS
 +------------+-------------+-------------+-----------------+ <-- min LBFGS
  

--------------------------------------------------------------------------------
 LBFGS: starting iteration         1 with trial guess (lambda=  0.793493)
--------------------------------------------------------------------------------
 
                           -------------------------------
                                     Cell Contents
                           -------------------------------
 
            xxxxxxxxxxxxxxxxxxxxxxxxxxxxxxxxxxxxxxxxxxxxxxxxxxxxxxxxxxxxxxxxx
            x  Element         Atom        Fractional coordinates of atoms  x
            x                 Number           u          v          w      x
            x---------------------------------------------------------------x
            x  H                 1         0.546302   0.517837   0.532972   x
            x  H                 2         0.579799   0.584581   0.556516   x
            x  H                 3         0.405289   0.490046   0.567086   x
            x  H                 4         0.438631   0.556098   0.590780   x
            x  H                 5         0.436038   0.668686   0.499617   x
            x  H                 6         0.553072   0.663941   0.517046   x
            x  H                 7         0.591465   0.561661   0.489161   x
            x  H                 8         0.557894   0.626008   0.465708   x
            x  H                 9         0.386025   0.580236   0.460200   x
            x  H                10         0.415230   0.514446   0.484551   x
            x  H                11         0.555526   0.534299   0.391342   x
            x  H                12         0.404169   0.428776   0.405449   x
            x  H                13         0.614950   0.419342   0.436483   x
            x  H                14         0.388661   0.567733   0.524671   x
            x  H                15         0.417018   0.630070   0.548451   x
            x  H                16         0.569811   0.437274   0.577065   x
            x  H                17         0.602604   0.502759   0.600477   x
            x  H                18         0.539484   0.408669   0.630110   x
            x  H                19         0.425843   0.410221   0.610683   x
            x  H                20         0.459027   0.476242   0.634261   x
            x  C                 1         0.517703   0.552926   0.549390   x
            x  C                 2         0.468551   0.519262   0.575244   x
            x  C                 3         0.492743   0.635543   0.507335   x
            x  C                 4         0.528928   0.591766   0.482189   x
            x  C                 5         0.447391   0.548957   0.467997   x
            x  C                 6         0.539828   0.474244   0.592224   x
            x  C                 7         0.487782   0.440479   0.618329   x
            x  N                 1         0.450180   0.595919   0.532937   x
            x  O                 1         0.389808   0.457300   0.424819   x
            x  O                 2         0.582684   0.451166   0.452527   x
            x  O                 3         0.536494   0.555909   0.412145   x
            x  Si                1         0.490383   0.500291   0.437123   x
            xxxxxxxxxxxxxxxxxxxxxxxxxxxxxxxxxxxxxxxxxxxxxxxxxxxxxxxxxxxxxxxxx
 
 
------------------------------------------------------------------------ <-- SCF
SCF loop      Energy                           Energy gain       Timer   <-- SCF
                                               per atom          (sec)   <-- SCF
------------------------------------------------------------------------ <-- SCF
Initial  -3.21463880E+003                                         86.81  <-- SCF
      1  -3.18661407E+003                   -8.75772938E-001      87.65  <-- SCF
      2  -3.19027565E+003                    1.14424517E-001      88.90  <-- SCF
      3  -3.18954221E+003                   -2.29201697E-002      90.02  <-- SCF
      4  -3.18967483E+003                    4.14440758E-003      91.08  <-- SCF
      5  -3.18971027E+003                    1.10758108E-003      92.26  <-- SCF
      6  -3.18971368E+003                    1.06505072E-004      93.29  <-- SCF
      7  -3.18971417E+003                    1.51844827E-005      94.19  <-- SCF
      8  -3.18971446E+003                    9.20224976E-006      95.06  <-- SCF
      9  -3.18971447E+003                    2.23111295E-007      95.88  <-- SCF
     10  -3.18971442E+003                   -1.30779059E-006      96.64  <-- SCF
------------------------------------------------------------------------ <-- SCF
 
Final energy =  -3189.714424930     eV
(energy not corrected for finite basis set)
 
(SEDC) Total Energy Correction : -0.779110E+00 eV

Dispersion corrected final energy* =  -3190.493534748     eV
 
 ************************************** Forces **************************************
 *                                                                                  *
 *                           Cartesian components (eV/A)                            *
 * -------------------------------------------------------------------------------- *
 *                         x                    y                    z              *
 *                                                                                  *
 * H               1      0.10188             -0.11097              0.11815         *
 * H               2     -0.05554             -0.15991             -0.00784         *
 * H               3     -0.06269             -0.00645              0.01131         *
 * H               4     -0.03706              0.02861             -0.00826         *
 * H               5     -0.57613              0.30952             -0.09368         *
 * H               6      0.20214              0.16016              0.06607         *
 * H               7      0.22943             -0.15829              0.11427         *
 * H               8      0.17634              0.09909             -0.30095         *
 * H               9     -0.00989             -0.02077             -0.04334         *
 * H              10      0.07811              0.08865             -0.16125         *
 * H              11     -0.77555              1.49470              2.88248         *
 * H              12     -0.71680              1.80951              2.73970         *
 * H              13     -1.29104              1.98268              2.29166         *
 * H              14      1.17693              0.71267              0.44097         *
 * H              15      0.65547             -1.17472             -1.09414         *
 * H              16      0.09863             -0.14757             -0.16820         *
 * H              17      0.20461              0.16492              0.06128         *
 * H              18      0.12863             -0.13059              0.13863         *
 * H              19     -0.13754             -0.06983             -0.07615         *
 * H              20     -0.03806              0.13431              0.08852         *
 * C               1      1.19569             -0.23017             -0.11448         *
 * C               2     -0.22143             -0.12522              0.18471         *
 * C               3      0.57557             -0.82017              0.21045         *
 * C               4     -0.35913              0.07374             -0.06617         *
 * C               5     -0.53475              0.83310              1.48687         *
 * C               6     -0.37423             -0.04650              0.09805         *
 * C               7      0.11547              0.11065             -0.22193         *
 * N               1     -2.98288              1.22223              0.38783         *
 * O               1      1.95554             -1.11141             -2.33950         *
 * O               2     -0.01536             -0.99137             -3.10968         *
 * O               3      0.26905             -2.57354             -1.98442         *
 * Si              1      1.02459             -1.34704             -1.53095         *
 *                                                                                  *
 ************************************************************************************
  
 +------------+-------------+-------------+-----------------+ <-- min LBFGS
 |    Step    |   lambda    |   F.delta'  |    enthalpy     | <-- min LBFGS
 +------------+-------------+-------------+-----------------+ <-- min LBFGS
 |  previous  |    0.000000 |    1.842108 |    -3191.111779 | <-- min LBFGS
 | trial step |    0.793493 |   -3.243487 |    -3190.493535 | <-- min LBFGS
 +------------+-------------+-------------+-----------------+ <-- min LBFGS
  

--------------------------------------------------------------------------------
 LBFGS: improving iteration         1 with line minimization (lambda=  0.287419)
--------------------------------------------------------------------------------
 
                           -------------------------------
                                     Cell Contents
                           -------------------------------
 
            xxxxxxxxxxxxxxxxxxxxxxxxxxxxxxxxxxxxxxxxxxxxxxxxxxxxxxxxxxxxxxxxx
            x  Element         Atom        Fractional coordinates of atoms  x
            x                 Number           u          v          w      x
            x---------------------------------------------------------------x
            x  H                 1         0.546870   0.517927   0.533442   x
            x  H                 2         0.580550   0.584931   0.557131   x
            x  H                 3         0.405273   0.490181   0.567673   x
            x  H                 4         0.438536   0.556311   0.591350   x
            x  H                 5         0.434450   0.669587   0.500058   x
            x  H                 6         0.552562   0.664902   0.517426   x
            x  H                 7         0.590883   0.562123   0.489363   x
            x  H                 8         0.556981   0.626782   0.465689   x
            x  H                 9         0.385262   0.581232   0.460428   x
            x  H                10         0.414651   0.515777   0.484788   x
            x  H                11         0.555348   0.529988   0.391066   x
            x  H                12         0.410595   0.429362   0.404684   x
            x  H                13         0.611426   0.420315   0.434194   x
            x  H                14         0.388176   0.569774   0.525236   x
            x  H                15         0.415840   0.630701   0.548451   x
            x  H                16         0.569787   0.436953   0.577722   x
            x  H                17         0.602845   0.502747   0.601243   x
            x  H                18         0.539917   0.408157   0.630918   x
            x  H                19         0.425838   0.409813   0.611326   x
            x  H                20         0.459038   0.476095   0.634988   x
            x  C                 1         0.518651   0.553469   0.549792   x
            x  C                 2         0.468536   0.519489   0.575795   x
            x  C                 3         0.491723   0.635791   0.507976   x
            x  C                 4         0.527779   0.592588   0.482477   x
            x  C                 5         0.446637   0.549864   0.468231   x
            x  C                 6         0.539401   0.474288   0.592869   x
            x  C                 7         0.488094   0.440237   0.618972   x
            x  N                 1         0.446040   0.597740   0.533426   x
            x  O                 1         0.398246   0.456126   0.422669   x
            x  O                 2         0.580654   0.450273   0.448849   x
            x  O                 3         0.537230   0.549482   0.410490   x
            x  Si                1         0.491492   0.499683   0.436167   x
            xxxxxxxxxxxxxxxxxxxxxxxxxxxxxxxxxxxxxxxxxxxxxxxxxxxxxxxxxxxxxxxxx
 
 
------------------------------------------------------------------------ <-- SCF
SCF loop      Energy                           Energy gain       Timer   <-- SCF
                                               per atom          (sec)   <-- SCF
------------------------------------------------------------------------ <-- SCF
Initial  -3.20998862E+003                                         97.95  <-- SCF
      1  -3.18986184E+003                   -6.28961842E-001      98.81  <-- SCF
      2  -3.19079132E+003                    2.90462135E-002      99.89  <-- SCF
      3  -3.19036884E+003                   -1.32025895E-002     100.89  <-- SCF
      4  -3.19050268E+003                    4.18240619E-003     101.96  <-- SCF
      5  -3.19053547E+003                    1.02476727E-003     103.08  <-- SCF
      6  -3.19053642E+003                    2.96958462E-005     103.96  <-- SCF
      7  -3.19053715E+003                    2.27092736E-005     104.76  <-- SCF
      8  -3.19053766E+003                    1.62015967E-005     105.52  <-- SCF
      9  -3.19053817E+003                    1.57207051E-005     106.34  <-- SCF
     10  -3.19053862E+003                    1.39991310E-005     107.11  <-- SCF
     11  -3.19053890E+003                    8.80966224E-006     107.88  <-- SCF
     12  -3.19053931E+003                    1.29500704E-005     108.64  <-- SCF
     13  -3.19053947E+003                    5.02983449E-006     109.40  <-- SCF
     14  -3.19053969E+003                    6.79312831E-006     110.17  <-- SCF
     15  -3.19053980E+003                    3.38778432E-006     110.94  <-- SCF
     16  -3.19053988E+003                    2.45887472E-006     111.72  <-- SCF
     17  -3.19053993E+003                    1.57119596E-006     112.49  <-- SCF
     18  -3.19053995E+003                    7.62616769E-007     113.26  <-- SCF
     19  -3.19053996E+003                    2.48610583E-007     114.03  <-- SCF
------------------------------------------------------------------------ <-- SCF
 
Final energy =  -3190.539960111     eV
(energy not corrected for finite basis set)
 
(SEDC) Total Energy Correction : -0.773602E+00 eV

Dispersion corrected final energy* =  -3191.313561695     eV
 
 ************************************** Forces **************************************
 *                                                                                  *
 *                           Cartesian components (eV/A)                            *
 * -------------------------------------------------------------------------------- *
 *                         x                    y                    z              *
 *                                                                                  *
 * H               1     -0.05448              0.09884              0.03287         *
 * H               2     -0.13023             -0.01542             -0.11372         *
 * H               3     -0.04071              0.03010             -0.02375         *
 * H               4     -0.01739              0.01691             -0.01785         *
 * H               5     -0.12671              0.04424             -0.01981         *
 * H               6     -0.04193             -0.03242              0.08250         *
 * H               7      0.02022              0.00905              0.04388         *
 * H               8      0.05551             -0.00673              0.03764         *
 * H               9      0.01873             -0.06052             -0.05549         *
 * H              10      0.01280             -0.08332             -0.10536         *
 * H              11     -0.26749              0.53560              0.87349         *
 * H              12     -0.25409              0.54703              0.83183         *
 * H              13     -0.38713              0.60485              0.72334         *
 * H              14      0.14060              0.06062              0.09123         *
 * H              15      0.07792             -0.31001             -0.17142         *
 * H              16      0.01767              0.02265             -0.06884         *
 * H              17      0.00521              0.05308             -0.06093         *
 * H              18     -0.00711              0.02985             -0.03626         *
 * H              19     -0.02626              0.02007             -0.01214         *
 * H              20      0.00846              0.02189             -0.01361         *
 * C               1     -0.01433             -0.05031              0.02830         *
 * C               2     -0.08248             -0.04688              0.07463         *
 * C               3      0.10101              0.06991             -0.21674         *
 * C               4     -0.03399             -0.03910             -0.09543         *
 * C               5     -0.11550              0.19076              0.30758         *
 * C               6      0.02810             -0.08453              0.05374         *
 * C               7     -0.04152              0.02190             -0.01338         *
 * N               1      0.33702             -0.05437              0.11288         *
 * O               1      0.16681             -0.29506             -0.48189         *
 * O               2      0.09043             -0.23183             -0.42790         *
 * O               3      0.09344             -0.29772             -0.49710         *
 * Si              1      0.46744             -0.76912             -0.86230         *
 *                                                                                  *
 ************************************************************************************
  
 +------------+-------------+-------------+-----------------+ <-- min LBFGS
 |    Step    |   lambda    |   F.delta'  |    enthalpy     | <-- min LBFGS
 +------------+-------------+-------------+-----------------+ <-- min LBFGS
 |  previous  |    0.000000 |    1.842108 |    -3191.111779 | <-- min LBFGS
 | trial step |    0.793493 |   -3.243487 |    -3190.493535 | <-- min LBFGS
 |  line step |    0.287419 |   -0.218176 |    -3191.313562 | <-- min LBFGS
 +------------+-------------+-------------+-----------------+ <-- min LBFGS
  
 LBFGS: finished iteration     1 with enthalpy= -3.19131356E+003 eV
  
 +-----------+-----------------+-----------------+------------+-----+ <-- LBFGS
 | Parameter |      value      |    tolerance    |    units   | OK? | <-- LBFGS
 +-----------+-----------------+-----------------+------------+-----+ <-- LBFGS
 |  dE/ion   |   6.305694E-003 |   2.000000E-005 |         eV | No  | <-- LBFGS
 |  |F|max   |   1.246436E+000 |   5.000000E-002 |       eV/A | No  | <-- LBFGS
 |  |dR|max  |   9.583946E-002 |   2.000000E-003 |          A | No  | <-- LBFGS
 +-----------+-----------------+-----------------+------------+-----+ <-- LBFGS
  

================================================================================
 Starting LBFGS iteration          2 ...
================================================================================
  
 +------------+-------------+-------------+-----------------+ <-- min LBFGS
 |    Step    |   lambda    |   F.delta'  |    enthalpy     | <-- min LBFGS
 +------------+-------------+-------------+-----------------+ <-- min LBFGS
 |  previous  |    0.000000 |    0.784082 |    -3191.313562 | <-- min LBFGS
 +------------+-------------+-------------+-----------------+ <-- min LBFGS
  

--------------------------------------------------------------------------------
 LBFGS: starting iteration         2 with trial guess (lambda=  1.000000)
--------------------------------------------------------------------------------
 
                           -------------------------------
                                     Cell Contents
                           -------------------------------
 
            xxxxxxxxxxxxxxxxxxxxxxxxxxxxxxxxxxxxxxxxxxxxxxxxxxxxxxxxxxxxxxxxx
            x  Element         Atom        Fractional coordinates of atoms  x
            x                 Number           u          v          w      x
            x---------------------------------------------------------------x
            x  H                 1         0.546969   0.517222   0.532544   x
            x  H                 2         0.580023   0.583542   0.555827   x
            x  H                 3         0.405338   0.489397   0.566504   x
            x  H                 4         0.438795   0.555377   0.590192   x
            x  H                 5         0.436659   0.668002   0.499153   x
            x  H                 6         0.554310   0.662963   0.516721   x
            x  H                 7         0.592588   0.560978   0.488989   x
            x  H                 8         0.559200   0.625318   0.465509   x
            x  H                 9         0.386731   0.579558   0.460133   x
            x  H                10         0.416039   0.513722   0.484376   x
            x  H                11         0.551092   0.538308   0.395043   x
            x  H                12         0.401771   0.433722   0.408911   x
            x  H                13         0.607764   0.425498   0.439275   x
            x  H                14         0.391426   0.566935   0.524424   x
            x  H                15         0.419492   0.627696   0.547662   x
            x  H                16         0.570021   0.436807   0.576274   x
            x  H                17         0.602784   0.502460   0.599715   x
            x  H                18         0.539269   0.408551   0.629322   x
            x  H                19         0.425444   0.410046   0.609926   x
            x  H                20         0.458846   0.476121   0.633515   x
            x  C                 1         0.518669   0.551911   0.548880   x
            x  C                 2         0.468581   0.518437   0.574734   x
            x  C                 3         0.494379   0.634678   0.506791   x
            x  C                 4         0.529869   0.591017   0.481893   x
            x  C                 5         0.447706   0.548794   0.468252   x
            x  C                 6         0.539913   0.473637   0.591571   x
            x  C                 7         0.487502   0.440302   0.617569   x
            x  N                 1         0.452522   0.594713   0.532575   x
            x  O                 1         0.390171   0.458702   0.425807   x
            x  O                 2         0.578840   0.453628   0.453114   x
            x  O                 3         0.534501   0.556358   0.413272   x
            x  Si                1         0.492098   0.498290   0.436415   x
            xxxxxxxxxxxxxxxxxxxxxxxxxxxxxxxxxxxxxxxxxxxxxxxxxxxxxxxxxxxxxxxxx
 
 
------------------------------------------------------------------------ <-- SCF
SCF loop      Energy                           Energy gain       Timer   <-- SCF
                                               per atom          (sec)   <-- SCF
------------------------------------------------------------------------ <-- SCF
Initial  -3.22836339E+003                                        115.38  <-- SCF
      1  -3.18793679E+003                   -1.26333097E+000     116.20  <-- SCF
      2  -3.19027120E+003                    7.29502858E-002     117.44  <-- SCF
      3  -3.18993218E+003                   -1.05943547E-002     118.55  <-- SCF
      4  -3.19013046E+003                    6.19613008E-003     119.55  <-- SCF
      5  -3.19013042E+003                   -1.16240033E-006     120.61  <-- SCF
      6  -3.19013122E+003                    2.48360205E-005     121.69  <-- SCF
      7  -3.19013031E+003                   -2.82799543E-005     122.59  <-- SCF
      8  -3.19012904E+003                   -3.98956561E-005     123.48  <-- SCF
      9  -3.19012772E+003                   -4.12719687E-005     124.40  <-- SCF
     10  -3.19012774E+003                    8.56062306E-007     125.19  <-- SCF
     11  -3.19012794E+003                    6.24709926E-006     126.00  <-- SCF
     12  -3.19012830E+003                    1.10558645E-005     126.80  <-- SCF
     13  -3.19012881E+003                    1.58992446E-005     127.57  <-- SCF
     14  -3.19012929E+003                    1.52847441E-005     128.34  <-- SCF
     15  -3.19012980E+003                    1.56489300E-005     129.10  <-- SCF
     16  -3.19013023E+003                    1.35530995E-005     129.87  <-- SCF
     17  -3.19013059E+003                    1.14049261E-005     130.65  <-- SCF
     18  -3.19013080E+003                    6.53160064E-006     131.43  <-- SCF
     19  -3.19013094E+003                    4.38161514E-006     132.20  <-- SCF
     20  -3.19013104E+003                    3.00688651E-006     132.98  <-- SCF
     21  -3.19013109E+003                    1.52007901E-006     133.76  <-- SCF
     22  -3.19013110E+003                    4.96135707E-007     134.54  <-- SCF
     23  -3.19013111E+003                    3.36198191E-007     135.32  <-- SCF
------------------------------------------------------------------------ <-- SCF
 
Final energy =  -3190.131114651     eV
(energy not corrected for finite basis set)
 
(SEDC) Total Energy Correction : -0.790895E+00 eV

Dispersion corrected final energy* =  -3190.922009871     eV
 
 ************************************** Forces **************************************
 *                                                                                  *
 *                           Cartesian components (eV/A)                            *
 * -------------------------------------------------------------------------------- *
 *                         x                    y                    z              *
 *                                                                                  *
 * H               1      0.22312             -0.35265             -0.02442         *
 * H               2      0.24886             -0.10184              0.20010         *
 * H               3     -0.08071             -0.02456              0.01176         *
 * H               4     -0.04736              0.06208              0.01240         *
 * H               5     -0.31567              0.07084              0.04269         *
 * H               6      0.25064              0.20668              0.04154         *
 * H               7      0.19077             -0.13885              0.07603         *
 * H               8      0.15317              0.06621             -0.38232         *
 * H               9     -0.12219              0.11147             -0.01494         *
[...]
 * H              17     -0.00093             -0.00470             -0.00080         *
 * H              18     -0.00929              0.01285             -0.00904         *
 * H              19     -0.00201             -0.00408              0.00105         *
 * H              20      0.00202             -0.00042             -0.00353         *
 * C               1     -0.00623              0.00803             -0.01314         *
 * C               2     -0.00637              0.00077              0.00898         *
 * C               3     -0.00699              0.00793              0.00216         *
 * C               4     -0.00508             -0.00195             -0.01022         *
 * C               5      0.00140              0.00823             -0.00323         *
 * C               6      0.01357             -0.01289             -0.00453         *
 * C               7      0.01025             -0.00101              0.01006         *
 * N               1     -0.00858             -0.02380              0.00877         *
 * O               1     -0.00389              0.00020              0.00197         *
 * O               2     -0.01733              0.01136              0.01464         *
 * O               3      0.00409             -0.01313              0.01871         *
 * Si              1      0.00737             -0.00849              0.00608         *
 *                                                                                  *
 ************************************************************************************
 
 Pseudo atomic calculation performed for H 1s1
 
 Converged in 13 iterations to a total energy of -12.4790 eV
 
 Pseudo atomic calculation performed for C 2s2 2p2
 
 Converged in 17 iterations to a total energy of -148.5208 eV
 
 Pseudo atomic calculation performed for N 2s2 2p3
 
 Converged in 21 iterations to a total energy of -268.1820 eV
 
 Pseudo atomic calculation performed for O 2s2 2p4
 
 Converged in 23 iterations to a total energy of -432.6536 eV
 
 Pseudo atomic calculation performed for Si 3s2 3p2
 
 Converged in 11 iterations to a total energy of -165.0683 eV
Charge spilling parameter for spin component 1 = 1.54%
 
            Orbital Populations       
     Ion    Atom   Orbital             Charge
  -------------------------------------------
      H     1      S                    0.691
      H     2      S                    0.689
      H     3      S                    0.734
      H     4      S                    0.734
      H     5      S                    0.683
      H     6      S                    0.681
      H     7      S                    0.726
      H     8      S                    0.679
      H     9      S                    0.724
      H    10      S                    0.776
      H    11      S                    0.456
      H    12      S                    0.459
      H    13      S                    0.462
      H    14      S                    0.524
      H    15      S                    0.505
      H    16      S                    0.727
      H    17      S                    0.726
      H    18      S                    0.700
      H    19      S                    0.731
      H    20      S                    0.726
      C     1      S                    1.297
      C     1      Px                   1.020
      C     1      Py                   1.040
      C     1      Pz                   1.043
      C     2      S                    1.297
      C     2      Px                   1.091
      C     2      Py                   1.106
      C     2      Pz                   1.026
      C     3      S                    1.310
      C     3      Px                   1.170
      C     3      Py                   1.031
      C     3      Pz                   0.906
      C     4      S                    1.295
      C     4      Px                   1.092
      C     4      Py                   1.093
      C     4      Pz                   1.054
      C     5      S                    1.398
      C     5      Px                   1.126
      C     5      Py                   1.182
      C     5      Pz                   1.253
      C     6      S                    1.305
      C     6      Px                   1.077
      C     6      Py                   1.078
      C     6      Pz                   1.051
      C     7      S                    1.400
      C     7      Px                   1.151
      C     7      Py                   1.171
      C     7      Pz                   1.072
      N     1      S                    1.583
      N     1      Px                   1.359
      N     1      Py                   1.344
      N     1      Pz                   1.334
      O     1      S                    1.854
      O     1      Px                   1.803
      O     1      Py                   1.736
      O     1      Pz                   1.703
      O     2      S                    1.857
      O     2      Px                   1.650
      O     2      Py                   1.768
      O     2      Pz                   1.829
      O     3      S                    1.855
      O     3      Px                   1.847
      O     3      Py                   1.823
      O     3      Pz                   1.576
     Si     1      S                    0.710
     Si     1      Px                   0.310
     Si     1      Py                   0.389
     Si     1      Pz                   0.402
  -------------------------------------------
                           Total:      74.000
  -------------------------------------------
 
     Atomic Populations (Mulliken)
     -----------------------------
Species          Ion     s       p       d       f      Total   Charge (e)
==========================================================================
  H               1     0.691   0.000   0.000   0.000   0.691     0.309
  H               2     0.689   0.000   0.000   0.000   0.689     0.311
  H               3     0.734   0.000   0.000   0.000   0.734     0.266
  H               4     0.734   0.000   0.000   0.000   0.734     0.266
  H               5     0.683   0.000   0.000   0.000   0.683     0.317
  H               6     0.681   0.000   0.000   0.000   0.681     0.319
  H               7     0.726   0.000   0.000   0.000   0.726     0.274
  H               8     0.679   0.000   0.000   0.000   0.679     0.321
  H               9     0.724   0.000   0.000   0.000   0.724     0.276
  H              10     0.776   0.000   0.000   0.000   0.776     0.224
  H              11     0.456   0.000   0.000   0.000   0.456     0.544
  H              12     0.459   0.000   0.000   0.000   0.459     0.541
  H              13     0.462   0.000   0.000   0.000   0.462     0.538
  H              14     0.524   0.000   0.000   0.000   0.524     0.476
  H              15     0.505   0.000   0.000   0.000   0.505     0.495
  H              16     0.727   0.000   0.000   0.000   0.727     0.273
  H              17     0.726   0.000   0.000   0.000   0.726     0.274
  H              18     0.700   0.000   0.000   0.000   0.700     0.300
  H              19     0.731   0.000   0.000   0.000   0.731     0.269
  H              20     0.726   0.000   0.000   0.000   0.726     0.274
  C               1     1.297   3.102   0.000   0.000   4.399    -0.399
  C               2     1.297   3.223   0.000   0.000   4.519    -0.519
  C               3     1.310   3.107   0.000   0.000   4.417    -0.417
  C               4     1.295   3.240   0.000   0.000   4.535    -0.535
  C               5     1.398   3.561   0.000   0.000   4.960    -0.960
  C               6     1.305   3.206   0.000   0.000   4.511    -0.511
  C               7     1.400   3.394   0.000   0.000   4.793    -0.793
  N               1     1.583   4.037   0.000   0.000   5.620    -0.620
  O               1     1.854   5.242   0.000   0.000   7.096    -1.096
  O               2     1.857   5.247   0.000   0.000   7.104    -1.104
  O               3     1.855   5.247   0.000   0.000   7.102    -1.102
  Si              1     0.710   1.101   0.000   0.000   1.811     2.189
==========================================================================
 
                 Bond                   Population      Length (A)
======================================================================
              H 11 -- O 3                    0.53        0.96826
              H 12 -- O 1                    0.53        0.96869
              H 13 -- O 2                    0.53        0.96880
              H 15 -- N 1                    0.68        1.02920
              H 14 -- N 1                    0.69        1.03278
              H 1  -- C 1                    0.86        1.09685
              H 6  -- C 3                    0.84        1.09759
              H 18 -- C 7                    0.81        1.09782
              H 2  -- C 1                    0.85        1.09854
              H 5  -- C 3                    0.84        1.09929
              H 19 -- C 7                    0.81        1.09945
              H 20 -- C 7                    0.81        1.10005
              H 8  -- C 4                    0.84        1.10040
              H 7  -- C 4                    0.85        1.10047
              H 9  -- C 5                    0.82        1.10205
              H 17 -- C 6                    0.84        1.10225
              H 16 -- C 6                    0.84        1.10312
              H 3  -- C 2                    0.85        1.10356
              H 4  -- C 2                    0.85        1.10419
              H 10 -- C 5                    0.83        1.10644
               C 1 -- N 1                    0.51        1.51036
               C 3 -- N 1                    0.50        1.51395
               C 1 -- C 2                    0.71        1.51848
               C 3 -- C 4                    0.71        1.52263
               C 6 -- C 7                    0.65        1.52804
               C 2 -- C 6                    0.68        1.53187
               C 4 -- C 5                    0.67        1.53425
               O 1 -- Si 1                   0.51        1.63928
               O 2 -- Si 1                   0.50        1.64825
               O 3 -- Si 1                   0.50        1.64881
              H 14 -- H 15                  -0.11        1.65595
              H 7  -- H 8                   -0.10        1.75472
              H 16 -- H 17                  -0.12        1.77166
              H 3  -- H 4                   -0.12        1.77468
              H 18 -- H 20                  -0.10        1.77539
              H 18 -- H 19                  -0.10        1.77651
              H 19 -- H 20                  -0.10        1.77990
              H 9  -- H 10                  -0.10        1.78027
              H 1  -- H 2                   -0.11        1.78292
              H 5  -- H 6                   -0.10        1.79462
               C 5 -- Si 1                   0.57        1.88395
              H 14 -- C 3                   -0.13        2.06945
              H 10 -- H 14                  -0.02        2.07385
              H 14 -- C 1                   -0.13        2.07428
              H 15 -- C 1                   -0.13        2.08315
              H 5  -- N 1                   -0.12        2.09712
              H 15 -- C 3                   -0.13        2.09999
              H 1  -- N 1                   -0.10        2.10505
              H 6  -- N 1                   -0.11        2.10564
              H 2  -- N 1                   -0.11        2.10627
              H 8  -- C 3                   -0.14        2.11087
              H 4  -- C 1                   -0.14        2.15384
              H 3  -- C 1                   -0.14        2.15757
              H 17 -- C 2                   -0.14        2.15977
              H 16 -- C 2                   -0.13        2.16263
              H 3  -- C 6                   -0.12        2.16304
              H 4  -- C 6                   -0.12        2.16357
              H 17 -- C 7                   -0.13        2.16844
              H 7  -- C 3                   -0.14        2.16846
              H 8  -- C 5                   -0.12        2.16853
              H 16 -- C 7                   -0.13        2.16887
              H 5  -- C 4                   -0.13        2.17001
              H 19 -- C 6                   -0.12        2.17672
              H 18 -- C 6                   -0.11        2.17871
              H 7  -- C 5                   -0.13        2.18059
              H 20 -- C 6                   -0.12        2.18060
              H 1  -- C 2                   -0.12        2.18356
              H 2  -- C 2                   -0.12        2.18702
              H 9  -- C 4                   -0.11        2.18707
              H 6  -- C 4                   -0.12        2.19169
              H 10 -- C 4                   -0.11        2.20096
              H 13 -- Si 1                  -0.14        2.26864
              H 11 -- Si 1                  -0.13        2.27892
              H 12 -- Si 1                  -0.14        2.29730
              H 1  -- H 7                   -0.03        2.30068
              H 5  -- H 15                  -0.04        2.31906
              H 1  -- H 14                  -0.04        2.35003
              H 5  -- H 14                  -0.02        2.39690
              H 4  -- H 15                  -0.01        2.39935
              H 10 -- Si 1                  -0.13        2.42010
              H 5  -- H 8                   -0.04        2.44560
              H 6  -- H 15                  -0.02        2.44638
              H 2  -- H 6                   -0.02        2.44645
              H 2  -- H 15                  -0.03        2.46130
              H 9  -- Si 1                  -0.11        2.47434
               C 2 -- N 1                   -0.14        2.48279
              H 6  -- H 7                   -0.03        2.48782
              H 6  -- H 8                   -0.02        2.49706
              H 3  -- H 14                  -0.01        2.49733
              H 3  -- H 16                  -0.03        2.50629
              H 16 -- H 18                  -0.03        2.50860
              H 4  -- H 17                  -0.03        2.51144
               C 4 -- N 1                   -0.13        2.51388
              H 17 -- H 18                  -0.03        2.51586
              H 2  -- H 4                   -0.03        2.51917
              H 17 -- H 20                  -0.03        2.52532
              H 16 -- H 19                  -0.03        2.52874
              H 1  -- H 3                   -0.03        2.52890
               C 2 -- C 7                   -0.16        2.52978
               C 1 -- C 6                   -0.14        2.53014
              H 8  -- H 9                   -0.02        2.54758
              H 7  -- H 10                  -0.03        2.54926
              H 3  -- H 19                  -0.01        2.55886
               C 3 -- C 5                   -0.16        2.56114
              H 4  -- H 20                  -0.01        2.56133
               C 1 -- C 3                   -0.13        2.56450
              H 14 -- C 5                   -0.01        2.56566
              H 2  -- H 17                  -0.01        2.59635
              H 1  -- H 16                  -0.01        2.59953
              H 15 -- C 2                   -0.04        2.60750
              H 5  -- H 9                   -0.01        2.62429
              H 14 -- C 4                   -0.04        2.64605
               O 2 -- O 3                   -0.08        2.66640
              H 3  -- N 1                   -0.03        2.70766
              H 14 -- C 2                   -0.03        2.70786
              H 4  -- N 1                   -0.03        2.71468
              H 2  -- C 3                   -0.04        2.72224
              H 1  -- H 10                  -0.01        2.73335
               O 1 -- O 3                   -0.07        2.74321
              H 6  -- C 1                   -0.04        2.74673
              H 17 -- C 1                   -0.04        2.74852
              H 4  -- C 7                   -0.04        2.74970
              H 10 -- N 1                   -0.03        2.75342
              H 9  -- H 14                  -0.00        2.75547
              H 3  -- C 7                   -0.04        2.75932
              H 16 -- C 1                   -0.04        2.76387
              H 13 -- O 3                   -0.01        2.77559
               O 1 -- O 2                   -0.07        2.78091
              H 19 -- C 2                   -0.04        2.78557
               C 5 -- O 2                   -0.11        2.78588
              H 1  -- C 4                   -0.03        2.79361
              H 9  -- C 3                   -0.04        2.79611
              H 20 -- C 2                   -0.04        2.79767
               C 5 -- O 1                   -0.10        2.80036
              H 1  -- C 3                   -0.02        2.80231
              H 8  -- O 3                    0.00        2.80789
              H 1  -- C 6                   -0.03        2.81696
              H 10 -- O 2                   -0.01        2.82889
              H 2  -- C 6                   -0.03        2.82915
              H 5  -- C 5                   -0.03        2.83481
              H 11 -- O 1                   -0.01        2.83758
               C 4 -- Si 1                  -0.15        2.84085
              H 7  -- N 1                   -0.01        2.84418
              H 9  -- O 1                   -0.01        2.86945
              H 3  -- H 15                  -0.00        2.89122
              H 10 -- C 3                   -0.02        2.89247
              H 7  -- C 1                   -0.02        2.89996
               C 5 -- O 3                   -0.09        2.91204
              H 6  -- H 14                   0.03        2.94755
              H 2  -- H 14                   0.03        2.95128
              H 1  -- H 15                   0.03        2.95430
======================================================================
 
 
     Hirshfeld Analysis
     ------------------
Species   Ion     Hirshfeld Charge (e)
======================================
  H        1                 0.07
  H        2                 0.07
  H        3                 0.05
  H        4                 0.05
  H        5                 0.07
  H        6                 0.07
  H        7                 0.05
  H        8                 0.06
  H        9                 0.05
  H       10                 0.04
  H       11                 0.18
  H       12                 0.18
  H       13                 0.17
  H       14                 0.16
  H       15                 0.18
  H       16                 0.05
  H       17                 0.05
  H       18                 0.05
  H       19                 0.04
  H       20                 0.05
  C        1                 0.01
  C        2                -0.06
  C        3                 0.01
  C        4                -0.06
  C        5                -0.15
  C        6                -0.05
  C        7                -0.10
  N        1                 0.03
  O        1                -0.28
  O        2                -0.29
  O        3                -0.28
  Si       1                 0.48
======================================
 

Writing analysis data to Conf_0030.castep_bin

Writing model to Conf_0030.check
 
 A BibTeX formatted list of references used in this run has been written to 
 Conf_0030.bib
 
Initialisation time =     24.51 s
Calculation time    =    896.47 s
Finalisation time   =      1.05 s
Total time          =    922.03 s
Peak Memory Use     = 7916056 kB
 
Overall parallel efficiency rating: Satisfactory (66%)
 
Data was distributed by:-
G-vector (48-way); efficiency rating: Satisfactory (66%)
High Water Mark     = 1777416 kB
