 Job started on host drago31060179.mgmt.cc.csic.es
 at Sun Mar 31 01:22:22 2024

 +-------------------------------------------------+
 |                                                 |
 |      CCC   AA    SSS  TTTTT  EEEEE  PPPP        |
 |     C     A  A  S       T    E      P   P       |
 |     C     AAAA   SS     T    EEE    PPPP        |
 |     C     A  A     S    T    E      P           |
 |      CCC  A  A  SSS     T    EEEEE  P           |
 |                                                 |
 +-------------------------------------------------+
 |                                                 |
 | Materials Studio CASTEP version 2024            |
 | Ab Initio Total Energy Program                  |
 |                                                 |
 | Authors:                                        |
 | M. Segall, M. Probert, C. Pickard, P. Hasnip,   |
 | S. Clark, K. Refson, J. R. Yates,               |
 | A. Bartok-Partay, M. Payne                      |
 |                                                 |
 | Contributors:                                   |
 | P. Lindan, P. Haynes, J. White, V. Milman,      |
 | N. Govind, M. Gibson, P. Tulip, V. Cocula,      |
 | B. Montanari, D. Quigley, M. Glover,            |
 | L. Bernasconi, A. Perlov, M. Plummer,           |
 | E. McNellis, J. Meyer, J. Gale, D. Jochym       |
 | J. Aarons, B. Walker, R. Gillen, D. Jones       |
 | T. Green, I. J. Bush, C. J. Armstrong,          |
 | E. J. Higgins, E. L. Brown, M. S. McFly,        |
 | J. Wilkins, B-C. Shih, P. J. P. Byrne,          |
 | R. J. Maurer, J. C. Womack, J. Dziedzic,        |
 | L. LeBlanc, T. K. Stenczel, J. Kermode,         |
 | S. Sturniolo, B. Shi, B. Durham, M. Evans,      |
 | M. J. Smith, A. Tamerus, Z. Hawkhead,           |
 | V. Ravindran, T. Hollins, S. A. Joyce,          |
 | R. T. Strong, A. M. Reilly                      |
 |                                                 |
 | Copyright (c) 2000 - 2023                       |
 |                                                 |
 | Please cite                                     |
 |                                                 |
 |     "First principles methods using CASTEP"     |
 |                                                 |
 |         Zeitschrift fuer Kristallographie       |
 |           220(5-6) pp. 567-570 (2005)           |
 |                                                 |
 | S. J. Clark, M. D. Segall, C. J. Pickard,       |
 | P. J. Hasnip, M. J. Probert, K. Refson,         |
 | M. C. Payne                                     |
 |                                                 |
 |       in all publications arising from          |
 |              your use of CASTEP                 |
 |                                                 |
 +-------------------------------------------------+
 |                                                 |
 |              http://www.castep.org              |
 |                                                 |
 +-------------------------------------------------+
 
 
 This version was compiled for x86_64-rhel7-intel19.0 on Oct 24 2023
 Code version:    a9f326b
 Intel(R) Math Kernel Library Version 2019.0.4 
 Fundamental constants values: CODATA 2018
 
License checkout of MS_castep successful
 
 
 Atomic calculation performed for H: 1s1
 
 Converged in 41 iterations to an ae energy of -12.488 eV
 
 Identity difference: 2.63E-05
 
   ============================================================                
   | Pseudopotential Report - Date of generation 31-03-2024   |                
   ------------------------------------------------------------                
   | Element: H Ionic charge:  1.00 Level of theory: PBE      |                
   | Atomic Solver: Koelling-Harmon                           |                
   |                                                          |                
   |               Reference Electronic Structure             |                
   |         Orbital         Occupation         Energy        |                
   |            1s              1.000           -0.239        |                
   |                                                          |                
   |                 Pseudopotential Definition               |                
   |        Beta     l      e      Rc     scheme   norm       |                
   |          1      0   -0.239   0.599     qc      0         |                
   |          2      0    0.250   0.599     qc      0         |                
   |         loc     1    0.000   0.599     pn      0         |                
   |                                                          |                
   | Augmentation charge Rinner = 0.421                       |                
   | No partial core correction                               |                
   ------------------------------------------------------------                
   | "1|0.6|9|10|15|10UU(qc=8)[]"                             |                
   ------------------------------------------------------------                
   |      Author: Chris J. Pickard, Cambridge University      |                
   ============================================================                
 
 Doing a self consistent calculation for the test configuration
 
 Atomic calculation performed for H: 1s1
 
 Converged in 41 iterations to an ae energy of -12.488 eV
 
 ---------------------------------------
 AE eigenvalue nl 10 =       -0.23860176
 ---------------------------------------
 PS eigenvalue nl 10 =       -0.23857601
 ---------------------------------------
 Maximum eigenvalue error:   2.57E-05
 
 Derived cutoff energies: C=   1 M=   6 F=  10 E=  20
 
 Checking for ghost states up to   1.51185 Ha
 
 No Ghost States Identified
 
 ***************************************
 
 Atomic calculation performed for C: 1s2 2s2 2p2
 
 Converged in 54 iterations to an ae energy of -1027.632 eV
 
 Identity difference: 2.37E-04
 
   ============================================================                
   | Pseudopotential Report - Date of generation 31-03-2024   |                
   ------------------------------------------------------------                
   | Element: C Ionic charge:  4.00 Level of theory: PBE      |                
   | Atomic Solver: Koelling-Harmon                           |                
   |                                                          |                
   |               Reference Electronic Structure             |                
   |         Orbital         Occupation         Energy        |                
   |            2s              2.000           -0.505        |                
   |            2p              2.000           -0.194        |                
   |                                                          |                
   |                 Pseudopotential Definition               |                
   |        Beta     l      e      Rc     scheme   norm       |                
   |          1      0   -0.505   1.395     qc      0         |                
   |          2      0    0.250   1.395     qc      0         |                
   |          3      1   -0.194   1.395     qc      0         |                
   |          4      1    0.250   1.395     qc      0         |                
   |         loc     2    0.000   1.395     pn      0         |                
   |                                                          |                
   | Augmentation charge Rinner = 0.983                       |                
   | Partial core correction Rc = 0.983                       |                
   ------------------------------------------------------------                
   | "2|1.4|11|12|14.7|20UU:21UU(qc=7)[]"                     |                
   ------------------------------------------------------------                
   |      Author: Chris J. Pickard, Cambridge University      |                
   ============================================================                
 
 Doing a self consistent calculation for the test configuration
 
 Atomic calculation performed for C: 1s2 2s2 2p2
 
 Converged in 54 iterations to an ae energy of -1027.632 eV
 
 ---------------------------------------
 AE eigenvalue nl 10 =      -10.04653081
 AE eigenvalue nl 20 =       -0.50533429
 AE eigenvalue nl 21 =       -0.19423807
 ---------------------------------------
 PS eigenvalue nl 20 =       -0.50531853
 PS eigenvalue nl 21 =       -0.19422214
 ---------------------------------------
 Maximum eigenvalue error:   1.59E-05
 
 Derived cutoff energies: C=   6 M=  10 F=  12 E=  16
 
 Checking for ghost states up to   1.47183 Ha
 
 No Ghost States Identified
 
 ***************************************
 
 Atomic calculation performed for N: 1s2 2s2 2p3
 
 Converged in 55 iterations to an ae energy of -1481.742 eV
 
 Identity difference: 2.27E-04
 
   ============================================================                
   | Pseudopotential Report - Date of generation 31-03-2024   |                
   ------------------------------------------------------------                
   | Element: N Ionic charge:  5.00 Level of theory: PBE      |                
   | Atomic Solver: Koelling-Harmon                           |                
   |                                                          |                
   |               Reference Electronic Structure             |                
   |         Orbital         Occupation         Energy        |                
   |            2s              2.000           -0.683        |                
   |            2p              3.000           -0.261        |                
   |                                                          |                
   |                 Pseudopotential Definition               |                
   |        Beta     l      e      Rc     scheme   norm       |                
   |          1      0   -0.683   1.100     qc      0         |                
   |          2      0    0.250   1.100     qc      0         |                
   |          3      1   -0.261   1.100     qc      0         |                
   |          4      1    0.250   1.100     qc      0         |                
   |         loc     2    0.000   1.100     pn      0         |                
   |                                                          |                
   | Augmentation charge Rinner = 0.769                       |                
   | Partial core correction Rc = 0.769                       |                
   ------------------------------------------------------------                
   | "2|1.1|12|16|19|20UU:21UU(qc=7)[]"                       |                
   ------------------------------------------------------------                
   |      Author: Chris J. Pickard, Cambridge University      |                
   ============================================================                
 
 Doing a self consistent calculation for the test configuration
 
 Atomic calculation performed for N: 1s2 2s2 2p3
 
 Converged in 55 iterations to an ae energy of -1481.742 eV
 
 ---------------------------------------
 AE eigenvalue nl 10 =      -14.13820921
 AE eigenvalue nl 20 =       -0.68290611
 AE eigenvalue nl 21 =       -0.26054797
 ---------------------------------------
 PS eigenvalue nl 20 =       -0.68291221
 PS eigenvalue nl 21 =       -0.26051708
 ---------------------------------------
 Maximum eigenvalue error:   3.09E-05
 
 Derived cutoff energies: C=  10 M=  15 F=  18 E=  23
 
 Checking for ghost states up to   1.48495 Ha
 
 No Ghost States Identified
 
 ***************************************
 
 Atomic calculation performed for O: 1s2 2s2 2p4
 
 Converged in 61 iterations to an ae energy of -2040.902 eV
 
 Identity difference: 4.10E-04
 
   ============================================================                
   | Pseudopotential Report - Date of generation 31-03-2024   |                
   ------------------------------------------------------------                
   | Element: O Ionic charge:  6.00 Level of theory: PBE      |                
   | Atomic Solver: Koelling-Harmon                           |                
   |                                                          |                
   |               Reference Electronic Structure             |                
   |         Orbital         Occupation         Energy        |                
   |            2s              2.000           -0.881        |                
   |            2p              4.000           -0.332        |                
   |                                                          |                
   |                 Pseudopotential Definition               |                
   |        Beta     l      e      Rc     scheme   norm       |                
   |          1      0   -0.881   1.100     qc      0         |                
   |          2      0    0.250   1.100     qc      0         |                
   |          3      1   -0.332   1.100     qc      0         |                
   |          4      1    0.250   1.100     qc      0         |                
   |         loc     2    0.000   1.100     pn      0         |                
   |                                                          |                
   | Augmentation charge Rinner = 0.769                       |                
   | Partial core correction Rc = 0.769                       |                
   ------------------------------------------------------------                
   | "2|1.1|14|18|21|20UU:21UU(qc=7)[]"                       |                
   ------------------------------------------------------------                
   |      Author: Chris J. Pickard, Cambridge University      |                
   ============================================================                
 
 Doing a self consistent calculation for the test configuration
 
 Atomic calculation performed for O: 1s2 2s2 2p4
 
 Converged in 61 iterations to an ae energy of -2040.902 eV
 
 ---------------------------------------
 AE eigenvalue nl 10 =      -18.91475256
 AE eigenvalue nl 20 =       -0.88057101
 AE eigenvalue nl 21 =       -0.33186952
 ---------------------------------------
 PS eigenvalue nl 20 =       -0.88059206
 PS eigenvalue nl 21 =       -0.33182157
 ---------------------------------------
 Maximum eigenvalue error:   4.80E-05
 
 Derived cutoff energies: C=  14 M=  17 F=  20 E=  22
 
 Checking for ghost states up to   1.49452 Ha
 
 No Ghost States Identified
 
 ***************************************
 
 Atomic calculation performed for Si: 1s2 2s2 2p6 3s2 3p2
 
 Converged in 54 iterations to an ae energy of -7886.857 eV
 
 Identity difference: 1.35E-04
 
   ============================================================                
   | Pseudopotential Report - Date of generation 31-03-2024   |                
   ------------------------------------------------------------                
   | Element: Si Ionic charge:  4.00 Level of theory: PBE     |                
   | Atomic Solver: Koelling-Harmon                           |                
   |                                                          |                
   |               Reference Electronic Structure             |                
   |         Orbital         Occupation         Energy        |                
   |            3s              2.000           -0.397        |                
   |            3p              2.000           -0.150        |                
   |                                                          |                
   |                 Pseudopotential Definition               |                
   |        Beta     l      e      Rc     scheme   norm       |                
   |          1      0   -0.397   1.797     qc      0         |                
   |          2      0    0.250   1.797     qc      0         |                
   |          3      1   -0.150   1.797     qc      0         |                
   |          4      1    0.250   1.797     qc      0         |                
   |          5      2    0.000   1.797     qc      0         |                
   |          6      2    0.250   1.797     qc      0         |                
   |         loc     3    0.000   1.797     pn      0         |                
   |                                                          |                
   | Augmentation charge Rinner = 1.255                       |                
   | Partial core correction Rc = 1.255                       |                
   ------------------------------------------------------------                
   | "3|1.8|3.6|5|7|30UU:31UU:32UU[]"                         |                
   ------------------------------------------------------------                
   |      Author: Chris J. Pickard, Cambridge University      |                
   ============================================================                
 
 Doing a self consistent calculation for the test configuration
 
 Atomic calculation performed for Si: 1s2 2s2 2p6 3s2 3p2
 
 Converged in 54 iterations to an ae energy of -7886.857 eV
 
 ---------------------------------------
 AE eigenvalue nl 10 =      -65.63192903
 AE eigenvalue nl 20 =       -5.12654326
 AE eigenvalue nl 21 =       -3.51173659
 AE eigenvalue nl 30 =       -0.39736430
 AE eigenvalue nl 31 =       -0.14998156
 ---------------------------------------
 PS eigenvalue nl 30 =       -0.39734922
 PS eigenvalue nl 31 =       -0.14996719
 ---------------------------------------
 Maximum eigenvalue error:   1.51E-05
 
 Derived cutoff energies: C=   1 M=   3 F=   6 E=   6
 
 Checking for ghost states up to   1.41161 Ha
 
 No Ghost States Identified
 
 ***************************************
 
 Pseudo atomic calculation performed for H 1s1
 
 Converged in 13 iterations to a total energy of -12.4790 eV
 
 Pseudo atomic calculation performed for C 2s2 2p2
 
 Converged in 17 iterations to a total energy of -148.5208 eV
 
 Pseudo atomic calculation performed for N 2s2 2p3
 
 Converged in 21 iterations to a total energy of -268.1820 eV
 
 Pseudo atomic calculation performed for O 2s2 2p4
 
 Converged in 23 iterations to a total energy of -432.6536 eV
 
 Pseudo atomic calculation performed for Si 3s2 3p2
 
 Converged in 11 iterations to a total energy of -165.0683 eV
 Calculation parallelised over 48 processes.
 Data is distributed by G-vector(48-way)

 ************************************ Title ************************************
 CASTEP calculation from BIOVIA Materials Studio 2024

 ***************************** General Parameters ******************************
  
 output verbosity                               : normal  (1)
 write checkpoint data to                       : Conf_0023.check
 type of calculation                            : geometry optimization
 stress calculation                             : off
 density difference calculation                 : off
 electron localisation func (ELF) calculation   : off
 Hirshfeld analysis                             : on
 polarisation (Berry phase) analysis            : off
 molecular orbital projected DOS                : off
 deltaSCF calculation                           : off
 unlimited duration calculation
 timing information                             : on
 memory usage estimate                          : on
 write extra output files                       : on
 write final potential to formatted file        : off
 write final density to formatted file          : off
 write BibTeX reference list                    : on
 write OTFG pseudopotential files               : on
 write electrostatic potential file             : on
 write bands file                               : on
 checkpoint writing                             : both castep_bin and check files
  
 output         length unit                     : A
 output           mass unit                     : amu
 output           time unit                     : ps
 output         charge unit                     : e
 output           spin unit                     : hbar/2
 output         energy unit                     : eV
 output          force unit                     : eV/A
 output       velocity unit                     : A/ps
 output       pressure unit                     : GPa
 output     inv_length unit                     : 1/A
 output      frequency unit                     : cm-1
 output force constant unit                     : eV/A**2
 output         volume unit                     : A**3
 output   IR intensity unit                     : (D/A)**2/amu
 output         dipole unit                     : D
 output         efield unit                     : eV/A/e
 output        entropy unit                     : J/mol/K
 output    efield chi2 unit                     : pm/V
  
 wavefunctions paging                           : none
 random number generator seed                   :   12225102
 data distribution                              : optimal for this architecture
 optimization strategy                          : balance speed and memory

 *********************** Exchange-Correlation Parameters ***********************
  
 using functional                               : Perdew Burke Ernzerhof
 relativistic treatment                         : Koelling-Harmon
 DFT+D: Semi-empirical dispersion correction    : on
 SEDC with                                      : G06 correction scheme

 ************************* Pseudopotential Parameters **************************
  
 pseudopotential representation                 : reciprocal space
 <beta|phi> representation                      : reciprocal space
 spin-orbit coupling                            : off

 **************************** Basis Set Parameters *****************************
  
 plane wave basis set cut-off                   :   600.0000   eV
 size of standard grid                          :     1.5000
 size of   fine   gmax                          :    18.8237   1/A
 largest prime factor in FFT                    :          5
 finite basis set correction                    : none

 **************************** Electronic Parameters ****************************
  
 number of  electrons                           :  74.00    
 net charge of system                           : +1.000    
 treating system as non-spin-polarized
 number of bands                                :         37

 ********************* Electronic Minimization Parameters **********************
  
 Method: Treating system as non-metallic,
         and number of  SD  steps               :          1
         and number of  CG  steps               :          4
  
 total energy / atom convergence tol.           : 0.2000E-05   eV
 eigen-energy convergence tolerance             : 0.1000E-05   eV
 max force / atom convergence tol.              : ignored
 convergence tolerance window                   :          3   cycles
 max. number of SCF cycles                      :        100
 periodic dipole correction                     : NONE

 ************************** Density Mixing Parameters **************************
  
 density-mixing scheme                          : Pulay
 max. length of mixing history                  :         20
 charge density mixing amplitude                : 0.5000    
 cut-off energy for mixing                      :  600.0       eV
 charge density mixing g-vector                 :  1.500       1/A

 *********************** Population Analysis Parameters ************************
  
 Population analysis with cutoff                :  3.000       A
 Population analysis output                     : summary and pdos components

 ********************** Geometry Optimization Parameters ***********************
  
 optimization method                            : LBFGS
 max. no. of LBFGS updates                      : unbounded
 preconditioned LBFGS is activated
 preconditioner type                            : EXP
     stabilization constant                     :     0.1000
     parameter A                                :     3.0000
     nearest neighbor distance                  : automatic
     cut-off distance                           : automatic
     parameter mu                               : automatic
 variable cell method                           : fixed basis quality
 max. number of steps                           :        300
 estimated bulk modulus                         :  500.0       GPa
 estimated <frequency>                          :  1668.       cm-1
 geom line minimiser                            : on
 with line minimiser tolerance                  :     0.4000
 total energy convergence tolerance             : 0.2000E-04   eV/atom
        max ionic |force| tolerance             : 0.5000E-01   eV/A
 max ionic |displacement| tolerance             : 0.2000E-02   A
   max |stress component| tolerance             : 0.1000       GPa
 convergence tolerance window                   :          2   steps
 backup results every                           :          5   steps
 write geom trajectory file                     : on

 *******************************************************************************
  
 
                           -------------------------------
                                      Unit Cell
                           -------------------------------
        Real Lattice(A)                      Reciprocal Lattice(1/A)
    13.4840002    -0.0000006    -0.0000006        0.465973392   0.000000000   0.000000000
     0.0000000    20.4006996    -0.0000009        0.000000013   0.307988717   0.000000000
     0.0000000     0.0000000    45.0000000        0.000000006   0.000000006   0.139626340
 
                       Lattice parameters(A)       Cell Angles
                    a =     13.484000          alpha =   90.000003
                    b =     20.400700          beta  =   90.000003
                    c =     45.000000          gamma =   90.000003
 
                       Current cell volume =         12378.736702       A**3
                                   density =             0.015698   AMU/A**3
                                           =             0.026068     g/cm^3
 
                           -------------------------------
                                     Cell Contents
                           -------------------------------
                         Total number of ions in cell =   32
                      Total number of species in cell =    5
                        Max number of any one species =   20
 
            xxxxxxxxxxxxxxxxxxxxxxxxxxxxxxxxxxxxxxxxxxxxxxxxxxxxxxxxxxxx
            x  Element    Atom        Fractional coordinates of atoms  x
            x            Number           u          v          w      x
            x----------------------------------------------------------x
            x  H            1         0.566301   0.406164   0.566793   x 
            x  H            2         0.631192   0.483174   0.566629   x 
            x  H            3         0.424322   0.459219   0.594367   x 
            x  H            4         0.488002   0.535459   0.594080   x 
            x  H            5         0.641033   0.479021   0.514625   x 
            x  H            6         0.575661   0.402166   0.514553   x 
            x  H            7         0.509566   0.527467   0.481238   x 
            x  H            8         0.444919   0.451591   0.481164   x 
            x  H            9         0.590824   0.397490   0.456394   x 
            x  H           10         0.655384   0.473054   0.456448   x 
            x  H           11         0.381160   0.435920   0.397551   x 
            x  H           12         0.647521   0.466383   0.386117   x 
            x  H           13         0.483345   0.570728   0.398182   x 
            x  H           14         0.434457   0.458475   0.537557   x 
            x  H           15         0.493968   0.529280   0.537458   x 
            x  H           16         0.561285   0.409994   0.625031   x 
            x  H           17         0.624691   0.486093   0.624755   x 
            x  H           18         0.528307   0.472191   0.671832   x 
            x  H           19         0.416636   0.462822   0.651193   x 
            x  H           20         0.480586   0.539318   0.651039   x 
            x  C            1         0.557398   0.459895   0.567400   x 
            x  C            2         0.498735   0.481811   0.594619   x 
            x  C            3         0.567725   0.455699   0.512092   x 
            x  C            4         0.519489   0.473800   0.482518   x 
            x  C            5         0.580592   0.451151   0.455581   x 
            x  C            6         0.550186   0.463606   0.623878   x 
            x  C            7         0.490681   0.485705   0.650991   x 
            x  N            1         0.501931   0.480036   0.538387   x 
            x  O            1         0.584837   0.447457   0.390259   x 
            x  O            2         0.510728   0.552833   0.415836   x 
            x  O            3         0.409817   0.441857   0.416631   x 
            x  Si           1         0.520789   0.473380   0.418587   x 
            xxxxxxxxxxxxxxxxxxxxxxxxxxxxxxxxxxxxxxxxxxxxxxxxxxxxxxxxxxxx
 
 
                         No user defined ionic velocities
 
                           -------------------------------
                                   Details of Species
                           -------------------------------
 
                               Mass of species in AMU
                                    H    1.0080000
                                    C   12.0109997
                                    N   14.0070000
                                    O   15.9989996
                                    Si   28.0849991
 
                          Electric Quadrupole Moment (Barn)
                                    H    0.0028600 Isotope  2
                                    C    0.0332700 Isotope 11
                                    N    0.0204400 Isotope 14
                                    O   -0.0255800 Isotope 17
                                    Si    1.0000000 No Isotope Defined
 
                          Files used for pseudopotentials:
                                    H 1|0.6|9|10|15|10UU(qc=8)[]
                                    C 2|1.4|11|12|14.7|20UU:21UU(qc=7)[]
                                    N 2|1.1|12|16|19|20UU:21UU(qc=7)[]
                                    O 2|1.1|14|18|21|20UU:21UU(qc=7)[]
                                    Si 3|1.8|3.6|5|7|30UU:31UU:32UU[]
 
                           -------------------------------
                              k-Points For BZ Sampling
                           -------------------------------
                       MP grid size for SCF calculation is  1  1  1
                            with an offset of   0.000  0.000  0.000
                       Number of kpoints used =             1
 
                           -------------------------------
                               Symmetry and Constraints
                           -------------------------------
 
                      Maximum deviation from symmetry =  0.00000         ANG
 
                      Number of symmetry operations   =           1
                      Number of nonlinear constraints =           3
         There are no ionic constraints specified or generated for this cell
                      Point group of crystal =     1: C1, 1, 1
                      Space group of crystal =     1: P1, P 1
 
             Set iprint > 1 for details on symmetry rotations/translations
 
                         Centre of mass is NOT constrained
 
                         Number of cell constraints= 6
                         Cell constraints are:  0 0 0 0 0 0
 
                         External pressure/stress (GPa)
                          0.00000   0.00000   0.00000
                                    0.00000   0.00000
                                              0.00000
 
                                --------------------
                                  DFT-D parameters
                                --------------------
 
                          Dispersion-correction scheme : G06       
                        Parameter s6 :   0.750000 (default)
                        Parameter d  :  20.000000 (default)
 
        xxxxxxxxxxxxxxxxxxxxxxxxxxxxxxxxxxxxxxxxxxxxxxxxxxxxxxxxxxxxxxxxxxxx
        x              Atomic DFT-D parameters                             x
        x  Species      C6            R0                                   x
        x               eV A^6        Ang                                  x
        x------------------------------------------------------------------x
        x  H             1.4510       1.0010   (default)                   x
        x  C            18.1375       1.4520   (default)                   x
        x  N            12.7481       1.3970   (default)                   x
        x  O             7.2550       1.3420   (default)                   x
        x  Si           95.6622       1.7160   (default)                   x
        xxxxxxxxxxxxxxxxxxxxxxxxxxxxxxxxxxxxxxxxxxxxxxxxxxxxxxxxxxxxxxxxxxxx
 
 
+---------------- MEMORY AND SCRATCH DISK ESTIMATES PER PROCESS --------------+
|                                                     Memory          Disk    |
| Baseline code, static data and system overhead     6533.0 MB         0.0 MB |
| BLAS internal memory storage                          0.0 MB         0.0 MB |
| Model and support data                              540.6 MB         0.0 MB |
| Electronic energy minimisation requirements          31.8 MB         0.0 MB |
| Force calculation requirements                        6.8 MB         0.0 MB |
|                                               ----------------------------- |
| Approx. total storage required per process         7105.3 MB         0.0 MB |
|                                                                             |
| Requirements will fluctuate during execution and may exceed these estimates |
+-----------------------------------------------------------------------------+
Calculating approximate eigenstates for fixed initial Hamiltonian
Cut-off for approx. calculation is  119.774 eV
Improving approx. states at cut-off of  300.000 eV
Resetting cut-off to  600.000 eV
Calculating total energy with cut-off of  600.000 eV.
------------------------------------------------------------------------ <-- SCF
SCF loop      Energy                           Energy gain       Timer   <-- SCF
                                               per atom          (sec)   <-- SCF
------------------------------------------------------------------------ <-- SCF
Initial  -2.92829371E+003                                         31.37  <-- SCF
      1  -3.20297544E+003                    8.58380399E+000      32.20  <-- SCF
      2  -3.20329220E+003                    9.89879272E-003      32.97  <-- SCF
      3  -3.19288665E+003                   -3.25173489E-001      34.12  <-- SCF
      4  -3.19166547E+003                   -3.81618392E-002      35.37  <-- SCF
      5  -3.19104450E+003                   -1.94052599E-002      36.42  <-- SCF
      6  -3.19094592E+003                   -3.08067704E-003      37.69  <-- SCF
      7  -3.19088383E+003                   -1.94048615E-003      38.70  <-- SCF
      8  -3.19086146E+003                   -6.98933576E-004      39.81  <-- SCF
      9  -3.19084799E+003                   -4.21095128E-004      40.84  <-- SCF
     10  -3.19083280E+003                   -4.74650209E-004      41.90  <-- SCF
     11  -3.19080733E+003                   -7.95846571E-004      42.92  <-- SCF
     12  -3.19075398E+003                   -1.66702461E-003      43.96  <-- SCF
     13  -3.19069213E+003                   -1.93299440E-003      44.94  <-- SCF
     14  -3.19062528E+003                   -2.08896426E-003      46.01  <-- SCF
     15  -3.19058117E+003                   -1.37863662E-003      47.00  <-- SCF
     16  -3.19054039E+003                   -1.27415030E-003      47.99  <-- SCF
     17  -3.19050676E+003                   -1.05106743E-003      48.98  <-- SCF
     18  -3.19047872E+003                   -8.76111380E-004      50.02  <-- SCF
     19  -3.19045378E+003                   -7.79498534E-004      51.03  <-- SCF
     20  -3.19043073E+003                   -7.20288152E-004      52.04  <-- SCF
     21  -3.19040576E+003                   -7.80363562E-004      53.00  <-- SCF
     22  -3.19038947E+003                   -5.08980848E-004      53.94  <-- SCF
     23  -3.19038260E+003                   -2.14829674E-004      54.77  <-- SCF
     24  -3.19038127E+003                   -4.15222233E-005      55.76  <-- SCF
     25  -3.19038539E+003                    1.28957722E-004      56.71  <-- SCF
     26  -3.19038790E+003                    7.84480131E-005      57.59  <-- SCF
     27  -3.19039074E+003                    8.85562610E-005      58.38  <-- SCF
     28  -3.19039544E+003                    1.46928209E-004      59.20  <-- SCF
     29  -3.19039918E+003                    1.16921901E-004      60.02  <-- SCF
     30  -3.19040334E+003                    1.29988338E-004      60.82  <-- SCF
     31  -3.19040567E+003                    7.27960756E-005      61.61  <-- SCF
     32  -3.19040767E+003                    6.23464492E-005      62.40  <-- SCF
     33  -3.19040933E+003                    5.20298346E-005      63.19  <-- SCF
     34  -3.19041023E+003                    2.79722564E-005      63.98  <-- SCF
     35  -3.19041114E+003                    2.86955481E-005      64.80  <-- SCF
     36  -3.19041180E+003                    2.03831262E-005      65.61  <-- SCF
     37  -3.19041217E+003                    1.15620177E-005      66.40  <-- SCF
     38  -3.19041252E+003                    1.09210367E-005      67.19  <-- SCF
     39  -3.19041288E+003                    1.14531943E-005      67.98  <-- SCF
     40  -3.19041335E+003                    1.44635530E-005      68.77  <-- SCF
     41  -3.19041351E+003                    5.07117323E-006      69.57  <-- SCF
     42  -3.19041377E+003                    8.17656753E-006      70.37  <-- SCF
     43  -3.19041387E+003                    3.18721973E-006      71.18  <-- SCF
     44  -3.19041401E+003                    4.21996774E-006      71.97  <-- SCF
     45  -3.19041407E+003                    1.96754329E-006      72.77  <-- SCF
     46  -3.19041413E+003                    1.84020327E-006      73.56  <-- SCF
     47  -3.19041420E+003                    2.23706234E-006      74.36  <-- SCF
     48  -3.19041423E+003                    9.93617892E-007      75.16  <-- SCF
     49  -3.19041425E+003                    5.12750532E-007      75.95  <-- SCF
------------------------------------------------------------------------ <-- SCF
 
Final energy =  -3190.414248036     eV
(energy not corrected for finite basis set)
 
(SEDC) Total Energy Correction : -0.722749E+00 eV

Dispersion corrected final energy* =  -3191.136997228     eV

Writing analysis data to Conf_0023.castep_bin

Writing model to Conf_0023.check

WARNING - nonlinear constraints cannot be used with LBFGS algorithm
        - consider setting geom_method=DELOCALIZED
 
        => Turning nonlinear constraints OFF
 
+---------------- MEMORY AND SCRATCH DISK ESTIMATES PER PROCESS --------------+
|                                                     Memory          Disk    |
| Model and support data                              550.1 MB         0.0 MB |
| Electronic energy minimisation requirements          31.8 MB         0.0 MB |
| Geometry minimisation requirements                   34.8 MB         0.0 MB |
|                                               ----------------------------- |
| Approx. total storage required per process          616.7 MB         0.0 MB |
|                                                                             |
| Requirements will fluctuate during execution and may exceed these estimates |
+-----------------------------------------------------------------------------+
 
 
 ************************************** Forces **************************************
 *                                                                                  *
 *                           Cartesian components (eV/A)                            *
 * -------------------------------------------------------------------------------- *
 *                         x                    y                    z              *
 *                                                                                  *
 * H               1     -0.08867              0.15838             -0.15526         *
 * H               2     -0.17919             -0.04945             -0.14964         *
 * H               3      0.02880              0.01368             -0.04494         *
 * H               4      0.00682             -0.03772             -0.05384         *
 * H               5     -0.22802             -0.05795              0.13499         *
 * H               6     -0.09203              0.21477              0.14471         *
 * H               7      0.00515             -0.05744              0.06686         *
 * H               8      0.04634              0.01668              0.06234         *
 * H               9     -0.05160              0.03368             -0.13639         *
 * H              10     -0.02181              0.04084             -0.10005         *
 * H              11     -0.44956             -0.21752             -0.90314         *
 * H              12      0.92110              0.44280             -0.28939         *
 * H              13     -0.34849              0.41491             -0.80255         *
 * H              14     -0.58185             -0.20621             -0.04463         *
 * H              15     -0.12536              0.65935             -0.04690         *
 * H              16     -0.00575              0.10516             -0.07095         *
 * H              17     -0.08211             -0.07000             -0.07480         *
 * H              18     -0.04370              0.01684             -0.14558         *
 * H              19      0.03290              0.00023              0.03681         *
 * H              20     -0.01565             -0.06591              0.02449         *
 * C               1     -0.78747              0.43569              0.20045         *
 * C               2      0.02059             -0.01093              0.03902         *
 * C               3     -0.74726              0.40977             -0.35198         *
 * C               4     -0.09481              0.06497             -0.03427         *
 * C               5     -0.21842              0.11002             -0.08225         *
 * C               6      0.20032             -0.12005              0.13337         *
 * C               7     -0.11703              0.05753              0.05386         *
 * N               1      2.67238             -1.36917              0.17395         *
 * O               1     -0.57770             -0.99587             -0.04658         *
 * O               2      0.65142              0.36166              1.43819         *
 * O               3      0.20341             -0.39976              1.20946         *
 * Si              1      0.06725              0.10102             -0.18538         *
 *                                                                                  *
 ************************************************************************************
 EXP precond LBFGS => estimated nearest neighbor distance :  1.628       A
 EXP precond LBFGS => estimated cutoff distance :  3.256       A
 doing test perturbation to get energy scale for EXP preconditioner
 
                           -------------------------------
                                     Cell Contents
                           -------------------------------
 
            xxxxxxxxxxxxxxxxxxxxxxxxxxxxxxxxxxxxxxxxxxxxxxxxxxxxxxxxxxxxxxxxx
            x  Element         Atom        Fractional coordinates of atoms  x
            x                 Number           u          v          w      x
            x---------------------------------------------------------------x
            x  H                 1         0.567364   0.406735   0.567124   x
            x  H                 2         0.632090   0.483449   0.566960   x
            x  H                 3         0.425529   0.459595   0.594683   x
            x  H                 4         0.489183   0.535499   0.594396   x
            x  H                 5         0.641903   0.479315   0.514977   x
            x  H                 6         0.576704   0.402749   0.514905   x
            x  H                 7         0.510723   0.527544   0.481598   x
            x  H                 8         0.446124   0.451998   0.481524   x
            x  H                 9         0.591831   0.398088   0.456756   x
            x  H                10         0.656208   0.473373   0.456809   x
            x  H                11         0.382347   0.436387   0.397907   x
            x  H                12         0.648371   0.466730   0.386471   x
            x  H                13         0.484531   0.570606   0.398538   x
            x  H                14         0.435664   0.458855   0.537902   x
            x  H                15         0.495143   0.529349   0.537803   x
            x  H                16         0.562358   0.410553   0.625327   x
            x  H                17         0.625609   0.486356   0.625051   x
            x  H                18         0.529439   0.472513   0.672089   x
            x  H                19         0.417842   0.463183   0.651468   x
            x  H                20         0.481774   0.539340   0.651314   x
            x  C                 1         0.558479   0.460269   0.567731   x
            x  C                 2         0.499906   0.482092   0.594935   x
            x  C                 3         0.568785   0.456089   0.512445   x
            x  C                 4         0.520634   0.474115   0.482878   x
            x  C                 5         0.581624   0.451560   0.455943   x
            x  C                 6         0.551281   0.463964   0.624174   x
            x  C                 7         0.491859   0.485969   0.651265   x
            x  N                 1         0.503098   0.480325   0.538731   x
            x  O                 1         0.585859   0.447880   0.390613   x
            x  O                 2         0.511885   0.552794   0.416195   x
            x  O                 3         0.411021   0.442301   0.416991   x
            x  Si                1         0.521932   0.473697   0.418947   x
            xxxxxxxxxxxxxxxxxxxxxxxxxxxxxxxxxxxxxxxxxxxxxxxxxxxxxxxxxxxxxxxxx
 
 
------------------------------------------------------------------------ <-- SCF
SCF loop      Energy                           Energy gain       Timer   <-- SCF
                                               per atom          (sec)   <-- SCF
------------------------------------------------------------------------ <-- SCF
Initial  -3.19255725E+003                                         77.98  <-- SCF
      1  -3.19039159E+003                   -6.76769214E-002      78.80  <-- SCF
      2  -3.19041383E+003                    6.94883858E-004      80.02  <-- SCF
      3  -3.19038645E+003                   -8.55543805E-004      81.03  <-- SCF
      4  -3.19040346E+003                    5.31563581E-004      82.03  <-- SCF
      5  -3.19040373E+003                    8.50768283E-006      82.86  <-- SCF
      6  -3.19040400E+003                    8.39632669E-006      83.62  <-- SCF
      7  -3.19040407E+003                    2.10271261E-006      84.38  <-- SCF
      8  -3.19040412E+003                    1.56569950E-006      85.15  <-- SCF
      9  -3.19040417E+003                    1.58635976E-006      85.91  <-- SCF
     10  -3.19040420E+003                    8.39823543E-007      86.68  <-- SCF
     11  -3.19040423E+003                    1.16581308E-006      87.45  <-- SCF
     12  -3.19040425E+003                    5.36363463E-007      88.22  <-- SCF
------------------------------------------------------------------------ <-- SCF
 
Final energy =  -3190.404251782     eV
(energy not corrected for finite basis set)
 
(SEDC) Total Energy Correction : -0.722008E+00 eV

Dispersion corrected final energy* =  -3191.126260129     eV
 
 ************************************** Forces **************************************
 *                                                                                  *
 *                           Cartesian components (eV/A)                            *
 * -------------------------------------------------------------------------------- *
 *                         x                    y                    z              *
 *                                                                                  *
 * H               1     -0.06573              0.02653             -0.16952         *
 * H               2     -0.09308             -0.01082             -0.16161         *
 * H               3     -0.00605             -0.01746             -0.03741         *
 * H               4     -0.01888              0.11526             -0.05179         *
 * H               5     -0.11594             -0.00819              0.12880         *
 * H               6     -0.08577              0.08592              0.13942         *
 * H               7     -0.02021              0.09410              0.04646         *
 * H               8      0.02187             -0.00561              0.04858         *
 * H               9     -0.03056             -0.09828             -0.12996         *
 * H              10      0.07465              0.08450             -0.09552         *
 * H              11     -0.43848             -0.21957             -0.88533         *
 * H              12      1.05571              0.49694             -0.31817         *
 * H              13     -0.35626              0.44527             -0.82780         *
 * H              14     -0.63103             -0.24763             -0.05167         *
 * H              15     -0.12821              0.87383             -0.05875         *
 * H              16      0.01846             -0.02654             -0.06102         *
 * H              17     -0.00317             -0.02791             -0.06243         *
 * H              18     -0.02308              0.00587             -0.11133         *
 * H              19      0.00093             -0.02703              0.03922         *
 * H              20     -0.00034              0.08575              0.03371         *
 * C               1     -0.83774              0.46196              0.18870         *
 * C               2      0.01672             -0.08264              0.03676         *
 * C               3     -0.79962              0.43278             -0.36183         *
 * C               4     -0.09029             -0.00644             -0.02834         *
 * C               5     -0.27773              0.13769             -0.09789         *
 * C               6      0.15686             -0.09727              0.12116         *
 * C               7     -0.11674             -0.02384              0.05410         *
 * N               1      2.61499             -1.43367              0.20334         *
 * O               1     -0.69851             -1.09120             -0.04746         *
 * O               2      0.63037              0.58483              1.44792         *
 * O               3      0.14794             -0.44074              1.20781         *
 * Si              1      0.09890             -0.06639             -0.13816         *
 *                                                                                  *
 ************************************************************************************
 EXP precond LBFGS => estimated parameter mu :  3.185       eV/A**2
 LBFGS: finished iteration     0 with enthalpy= -3.19113700E+003 eV
  
 +-----------+-----------------+-----------------+------------+-----+ <-- LBFGS
 | Parameter |      value      |    tolerance    |    units   | OK? | <-- LBFGS
 +-----------+-----------------+-----------------+------------+-----+ <-- LBFGS
 |  dE/ion   |   0.000000E+000 |   2.000000E-005 |         eV | No  | <-- LBFGS
 |  |F|max   |   2.989140E+000 |   5.000000E-002 |       eV/A | No  | <-- LBFGS
 |  |dR|max  |   5.051764E-015 |   2.000000E-003 |          A | No  | <-- LBFGS
 +-----------+-----------------+-----------------+------------+-----+ <-- LBFGS
  

================================================================================
 Starting LBFGS iteration          1 ...
================================================================================
  
 +------------+-------------+-------------+-----------------+ <-- min LBFGS
 |    Step    |   lambda    |   F.delta'  |    enthalpy     | <-- min LBFGS
 +------------+-------------+-------------+-----------------+ <-- min LBFGS
 |  previous  |    0.000000 |    1.814769 |    -3191.136997 | <-- min LBFGS
 +------------+-------------+-------------+-----------------+ <-- min LBFGS
  

--------------------------------------------------------------------------------
 LBFGS: starting iteration         1 with trial guess (lambda=  1.000000)
--------------------------------------------------------------------------------
 
                           -------------------------------
                                     Cell Contents
                           -------------------------------
 
            xxxxxxxxxxxxxxxxxxxxxxxxxxxxxxxxxxxxxxxxxxxxxxxxxxxxxxxxxxxxxxxxx
            x  Element         Atom        Fractional coordinates of atoms  x
            x                 Number           u          v          w      x
            x---------------------------------------------------------------x
            x  H                 1         0.564521   0.407155   0.566349   x
            x  H                 2         0.629089   0.483669   0.566191   x
            x  H                 3         0.423576   0.459498   0.593998   x
            x  H                 4         0.487187   0.535621   0.593701   x
            x  H                 5         0.638707   0.479650   0.514557   x
            x  H                 6         0.573812   0.403435   0.514495   x
            x  H                 7         0.508781   0.527911   0.481277   x
            x  H                 8         0.444204   0.452100   0.481189   x
            x  H                 9         0.589601   0.398052   0.456128   x
            x  H                10         0.654433   0.473676   0.456234   x
            x  H                11         0.379758   0.431486   0.397879   x
            x  H                12         0.656467   0.464408   0.385748   x
            x  H                13         0.486552   0.574279   0.399232   x
            x  H                14         0.434547   0.457651   0.537334   x
            x  H                15         0.495501   0.530263   0.537232   x
            x  H                16         0.560204   0.410443   0.624607   x
            x  H                17         0.623306   0.486083   0.624326   x
            x  H                18         0.526724   0.472402   0.671297   x
            x  H                19         0.415392   0.462998   0.650880   x
            x  H                20         0.479145   0.539311   0.650710   x
            x  C                 1         0.554918   0.460883   0.567190   x
            x  C                 2         0.497817   0.482083   0.594307   x
            x  C                 3         0.565230   0.456829   0.511753   x
            x  C                 4         0.518307   0.474454   0.482429   x
            x  C                 5         0.579296   0.451775   0.455450   x
            x  C                 6         0.549406   0.463659   0.623584   x
            x  C                 7         0.489122   0.485919   0.650649   x
            x  N                 1         0.507194   0.478529   0.538264   x
            x  O                 1         0.588849   0.443092   0.390243   x
            x  O                 2         0.516429   0.555745   0.418598   x
            x  O                 3         0.410579   0.437610   0.418687   x
            x  Si                1         0.523416   0.472570   0.419270   x
            xxxxxxxxxxxxxxxxxxxxxxxxxxxxxxxxxxxxxxxxxxxxxxxxxxxxxxxxxxxxxxxxx
 
 
------------------------------------------------------------------------ <-- SCF
SCF loop      Energy                           Energy gain       Timer   <-- SCF
                                               per atom          (sec)   <-- SCF
------------------------------------------------------------------------ <-- SCF
Initial  -3.20019450E+003                                         89.56  <-- SCF
      1  -3.18985911E+003                   -3.22980688E-001      90.40  <-- SCF
      2  -3.19051318E+003                    2.04396836E-002      91.65  <-- SCF
      3  -3.19020347E+003                   -9.67867283E-003      92.79  <-- SCF
      4  -3.19026108E+003                    1.80044254E-003      93.92  <-- SCF
      5  -3.19029029E+003                    9.12835098E-004      94.98  <-- SCF
      6  -3.19029207E+003                    5.56287271E-005      96.01  <-- SCF
      7  -3.19029292E+003                    2.66538237E-005      96.78  <-- SCF
      8  -3.19029343E+003                    1.59257328E-005      97.55  <-- SCF
      9  -3.19029402E+003                    1.83729182E-005      98.32  <-- SCF
     10  -3.19029423E+003                    6.59178337E-006      99.09  <-- SCF
     11  -3.19029441E+003                    5.67692392E-006      99.86  <-- SCF
     12  -3.19029452E+003                    3.33438039E-006     100.63  <-- SCF
     13  -3.19029457E+003                    1.67855206E-006     101.40  <-- SCF
     14  -3.19029465E+003                    2.47560961E-006     102.17  <-- SCF
     15  -3.19029472E+003                    2.17096213E-006     102.95  <-- SCF
     16  -3.19029480E+003                    2.51153382E-006     103.72  <-- SCF
     17  -3.19029485E+003                    1.60321076E-006     104.50  <-- SCF
     18  -3.19029491E+003                    1.71798336E-006     105.28  <-- SCF
     19  -3.19029496E+003                    1.47629277E-006     106.06  <-- SCF
     20  -3.19029499E+003                    1.14993689E-006     106.84  <-- SCF
     21  -3.19029502E+003                    7.81890282E-007     107.62  <-- SCF
------------------------------------------------------------------------ <-- SCF
 
Final energy =  -3190.295018560     eV
(energy not corrected for finite basis set)
 
(SEDC) Total Energy Correction : -0.720072E+00 eV

Dispersion corrected final energy* =  -3191.015090413     eV
 
 ************************************** Forces **************************************
 *                                                                                  *
 *                           Cartesian components (eV/A)                            *
 * -------------------------------------------------------------------------------- *
 *                         x                    y                    z              *
 *                                                                                  *
 * H               1      0.01398              0.12089              0.08757         *
 * H               2     -0.09896             -0.10853              0.12814         *
 * H               3     -0.06264              0.01805             -0.00516         *
 * H               4     -0.04917              0.06542              0.01582         *
 * H               5     -0.04066             -0.08765             -0.10929         *
 * H               6      0.03768              0.09374             -0.08840         *
 * H               7     -0.06662              0.14048             -0.02684         *
 * H               8     -0.15031              0.03263             -0.02064         *
 * H               9     -0.02492              0.06749             -0.04402         *
 * H              10     -0.12386             -0.01851             -0.01833         *
 * H              11      1.00630              0.25335              2.23093         *
 * H              12     -2.20495             -0.92077              0.49158         *
 * H              13      0.97517             -0.86791              2.05100         *
 * H              14      1.19394              0.58040              0.04045         *
 * H              15      0.17983             -1.27761              0.05375         *
 * H              16      0.03230             -0.13970             -0.04618         *
 * H              17      0.13232              0.03923             -0.03201         *
 * H              18      0.05192             -0.01391              0.09915         *
 * H              19     -0.04645             -0.03458              0.00565         *
 * H              20     -0.03635              0.08183              0.00453         *
 * C               1      0.72864             -0.39633              0.07190         *
 * C               2     -0.30320              0.17544              0.11824         *
 * C               3      0.74509             -0.39985              0.01816         *
 * C               4     -0.31639              0.18055             -0.18978         *
 * C               5      0.47367             -0.19444              0.73402         *
 * C               6     -0.16075              0.11113              0.04104         *
 * C               7      0.00959             -0.02152             -0.18078         *
 * N               1     -1.90025              0.88118             -0.15605         *
 * O               1      1.43768              1.22411              0.39025         *
 * O               2     -0.79402             -0.22869             -1.87406         *
 * O               3     -0.08336              0.00173             -2.18788         *
 * Si              1     -0.55526              0.64236             -1.60275         *
 *                                                                                  *
 ************************************************************************************
  
 +------------+-------------+-------------+-----------------+ <-- min LBFGS
 |    Step    |   lambda    |   F.delta'  |    enthalpy     | <-- min LBFGS
 +------------+-------------+-------------+-----------------+ <-- min LBFGS
 |  previous  |    0.000000 |    1.814769 |    -3191.136997 | <-- min LBFGS
 | trial step |    1.000000 |   -2.091493 |    -3191.015090 | <-- min LBFGS
 +------------+-------------+-------------+-----------------+ <-- min LBFGS
  

--------------------------------------------------------------------------------
 LBFGS: improving iteration         1 with line minimization (lambda=  0.464579)
--------------------------------------------------------------------------------
 
                           -------------------------------
                                     Cell Contents
                           -------------------------------
 
            xxxxxxxxxxxxxxxxxxxxxxxxxxxxxxxxxxxxxxxxxxxxxxxxxxxxxxxxxxxxxxxxx
            x  Element         Atom        Fractional coordinates of atoms  x
            x                 Number           u          v          w      x
            x---------------------------------------------------------------x
            x  H                 1         0.565474   0.406624   0.566587   x
            x  H                 2         0.630215   0.483404   0.566425   x
            x  H                 3         0.423975   0.459349   0.594195   x
            x  H                 4         0.487623   0.535534   0.593904   x
            x  H                 5         0.639953   0.479313   0.514593   x
            x  H                 6         0.574802   0.402755   0.514526   x
            x  H                 7         0.509201   0.527673   0.481256   x
            x  H                 8         0.444587   0.451827   0.481176   x
            x  H                 9         0.590256   0.397751   0.456270   x
            x  H                10         0.654942   0.473343   0.456348   x
            x  H                11         0.380508   0.433860   0.397704   x
            x  H                12         0.651677   0.465466   0.385946   x
            x  H                13         0.484835   0.572377   0.398670   x
            x  H                14         0.434499   0.458092   0.537453   x
            x  H                15         0.494680   0.529737   0.537353   x
            x  H                16         0.560783   0.410203   0.624834   x
            x  H                17         0.624048   0.486088   0.624556   x
            x  H                18         0.527572   0.472289   0.671583   x
            x  H                19         0.416058   0.462904   0.651048   x
            x  H                20         0.479916   0.539315   0.650886   x
            x  C                 1         0.556246   0.460354   0.567303   x
            x  C                 2         0.498309   0.481937   0.594474   x
            x  C                 3         0.566566   0.456224   0.511935   x
            x  C                 4         0.518940   0.474104   0.482477   x
            x  C                 5         0.579990   0.451441   0.455520   x
            x  C                 6         0.549824   0.463631   0.623742   x
            x  C                 7         0.489957   0.485804   0.650832   x
            x  N                 1         0.504376   0.479336   0.538330   x
            x  O                 1         0.586701   0.445429   0.390252   x
            x  O                 2         0.513377   0.554186   0.417119   x
            x  O                 3         0.410171   0.439884   0.417586   x
            x  Si                1         0.522010   0.473003   0.418904   x
            xxxxxxxxxxxxxxxxxxxxxxxxxxxxxxxxxxxxxxxxxxxxxxxxxxxxxxxxxxxxxxxxx
 
 
------------------------------------------------------------------------ <-- SCF
SCF loop      Energy                           Energy gain       Timer   <-- SCF
                                               per atom          (sec)   <-- SCF
------------------------------------------------------------------------ <-- SCF
Initial  -3.19604258E+003                                        108.98  <-- SCF
      1  -3.19053694E+003                   -1.72051400E-001     109.85  <-- SCF
      2  -3.19065849E+003                    3.79871437E-003     111.00  <-- SCF
      3  -3.19054501E+003                   -3.54653242E-003     112.01  <-- SCF
      4  -3.19058751E+003                    1.32822500E-003     113.13  <-- SCF
      5  -3.19060140E+003                    4.34120426E-004     114.12  <-- SCF
      6  -3.19060180E+003                    1.23547142E-005     114.89  <-- SCF
      7  -3.19060200E+003                    6.28446347E-006     115.65  <-- SCF
      8  -3.19060215E+003                    4.71222381E-006     116.42  <-- SCF
      9  -3.19060222E+003                    2.16871547E-006     117.19  <-- SCF
     10  -3.19060234E+003                    3.98795806E-006     117.96  <-- SCF
     11  -3.19060241E+003                    2.11365464E-006     118.72  <-- SCF
     12  -3.19060253E+003                    3.82642146E-006     119.49  <-- SCF
     13  -3.19060260E+003                    1.89161928E-006     120.26  <-- SCF
     14  -3.19060270E+003                    3.27442746E-006     121.03  <-- SCF
     15  -3.19060274E+003                    1.26813060E-006     121.80  <-- SCF
     16  -3.19060282E+003                    2.42718523E-006     122.58  <-- SCF
     17  -3.19060284E+003                    6.07063237E-007     123.35  <-- SCF
     18  -3.19060289E+003                    1.58330553E-006     124.13  <-- SCF
     19  -3.19060290E+003                    2.90043577E-007     124.95  <-- SCF
------------------------------------------------------------------------ <-- SCF
 
Final energy =  -3190.602897716     eV
(energy not corrected for finite basis set)
 
(SEDC) Total Energy Correction : -0.721448E+00 eV

Dispersion corrected final energy* =  -3191.324345295     eV
 
 ************************************** Forces **************************************
 *                                                                                  *
 *                           Cartesian components (eV/A)                            *
 * -------------------------------------------------------------------------------- *
 *                         x                    y                    z              *
 *                                                                                  *
 * H               1     -0.03670              0.14564             -0.04869         *
 * H               2     -0.12849             -0.07503             -0.02810         *
 * H               3     -0.00669              0.01787             -0.02758         *
 * H               4     -0.01134              0.01137             -0.02244         *
 * H               5     -0.14301             -0.07083              0.02570         *
 * H               6     -0.02414              0.16811              0.03981         *
 * H               7     -0.02149              0.03376              0.02095         *
 * H               8     -0.03587              0.00973              0.02054         *
 * H               9     -0.03343              0.05261             -0.09653         *
 * H              10     -0.06250              0.01576             -0.06484         *
 * H              11      0.34546              0.06054              0.77899         *
 * H              12     -0.77303             -0.27665              0.12656         *
 * H              13      0.37762             -0.30416              0.73263         *
 * H              14      0.33209              0.21496             -0.00509         *
 * H              15      0.02476             -0.34848              0.00051         *
 * H              16      0.01824             -0.00455             -0.06063         *
 * H              17      0.02328             -0.01764             -0.05735         *
 * H              18      0.00627              0.00625             -0.03535         *
 * H              19      0.00311             -0.01306              0.02045         *
 * H              20     -0.02021              0.00471              0.01263         *
 * C               1     -0.11229              0.07088              0.10388         *
 * C               2     -0.11770              0.07507              0.07187         *
 * C               3     -0.09154              0.06033             -0.15089         *
 * C               4     -0.18544              0.11853             -0.10643         *
 * C               5      0.09544             -0.01898              0.25847         *
 * C               6      0.03922             -0.01026              0.08883         *
 * C               7     -0.05037              0.02280             -0.05613         *
 * N               1      0.37106             -0.40996              0.01514         *
 * O               1      0.53662              0.16985              0.15051         *
 * O               2     -0.12449              0.15512             -0.26944         *
 * O               3      0.01292             -0.24854             -0.55254         *
 * Si              1     -0.20738              0.38427             -0.88544         *
 *                                                                                  *
 ************************************************************************************
  
 +------------+-------------+-------------+-----------------+ <-- min LBFGS
 |    Step    |   lambda    |   F.delta'  |    enthalpy     | <-- min LBFGS
 +------------+-------------+-------------+-----------------+ <-- min LBFGS
 |  previous  |    0.000000 |    1.814769 |    -3191.136997 | <-- min LBFGS
 | trial step |    1.000000 |   -2.091493 |    -3191.015090 | <-- min LBFGS
 |  line step |    0.464579 |   -0.156608 |    -3191.324345 | <-- min LBFGS
 +------------+-------------+-------------+-----------------+ <-- min LBFGS
  
 LBFGS: finished iteration     1 with enthalpy= -3.19132435E+003 eV
  
 +-----------+-----------------+-----------------+------------+-----+ <-- LBFGS
 | Parameter |      value      |    tolerance    |    units   | OK? | <-- LBFGS
 +-----------+-----------------+-----------------+------------+-----+ <-- LBFGS
 |  dE/ion   |   5.854627E-003 |   2.000000E-005 |         eV | No  | <-- LBFGS
 |  |F|max   |   9.872519E-001 |   5.000000E-002 |       eV/A | No  | <-- LBFGS
 |  |dR|max  |   7.327692E-002 |   2.000000E-003 |          A | No  | <-- LBFGS
 +-----------+-----------------+-----------------+------------+-----+ <-- LBFGS
  

================================================================================
 Starting LBFGS iteration          2 ...
================================================================================
  
 +------------+-------------+-------------+-----------------+ <-- min LBFGS
 |    Step    |   lambda    |   F.delta'  |    enthalpy     | <-- min LBFGS
 +------------+-------------+-------------+-----------------+ <-- min LBFGS
 |  previous  |    0.000000 |    0.751011 |    -3191.324345 | <-- min LBFGS
 +------------+-------------+-------------+-----------------+ <-- min LBFGS
  

--------------------------------------------------------------------------------
 LBFGS: starting iteration         2 with trial guess (lambda=  1.000000)
--------------------------------------------------------------------------------
 
                           -------------------------------
                                     Cell Contents
                           -------------------------------
 
            xxxxxxxxxxxxxxxxxxxxxxxxxxxxxxxxxxxxxxxxxxxxxxxxxxxxxxxxxxxxxxxxx
            x  Element         Atom        Fractional coordinates of atoms  x
            x                 Number           u          v          w      x
            x---------------------------------------------------------------x
            x  H                 1         0.564329   0.407345   0.566200   x
            x  H                 2         0.628620   0.483425   0.566061   x
            x  H                 3         0.423160   0.459625   0.593839   x
            x  H                 4         0.486745   0.535725   0.593550   x
            x  H                 5         0.638241   0.479512   0.514368   x
            x  H                 6         0.573684   0.403742   0.514316   x
            x  H                 7         0.508307   0.528255   0.481105   x
            x  H                 8         0.443717   0.452400   0.481010   x
            x  H                 9         0.589414   0.398510   0.455975   x
            x  H                10         0.654021   0.474009   0.456125   x
            x  H                11         0.384935   0.431807   0.399310   x
            x  H                12         0.650467   0.463674   0.386633   x
            x  H                13         0.489858   0.572224   0.400934   x
            x  H                14         0.435998   0.457908   0.537174   x
            x  H                15         0.495723   0.529017   0.537078   x
            x  H                16         0.559960   0.410475   0.624379   x
            x  H                17         0.623133   0.486167   0.624103   x
            x  H                18         0.526395   0.472537   0.671072   x
            x  H                19         0.414980   0.463097   0.650677   x
            x  H                20         0.478688   0.539487   0.650502   x
            x  C                 1         0.554824   0.460779   0.567081   x
            x  C                 2         0.497246   0.482240   0.594192   x
            x  C                 3         0.565170   0.456823   0.511533   x
            x  C                 4         0.517662   0.474840   0.482208   x
            x  C                 5         0.579364   0.452087   0.455482   x
            x  C                 6         0.549083   0.463769   0.623421   x
            x  C                 7         0.488694   0.486059   0.650405   x
            x  N                 1         0.507122   0.478129   0.538092   x
            x  O                 1         0.587962   0.443778   0.390956   x
            x  O                 2         0.517465   0.554835   0.418909   x
            x  O                 3         0.413883   0.437496   0.418515   x
            x  Si                1         0.523219   0.473462   0.418582   x
            xxxxxxxxxxxxxxxxxxxxxxxxxxxxxxxxxxxxxxxxxxxxxxxxxxxxxxxxxxxxxxxxx
 
 
------------------------------------------------------------------------ <-- SCF
SCF loop      Energy                           Energy gain       Timer   <-- SCF
                                               per atom          (sec)   <-- SCF
------------------------------------------------------------------------ <-- SCF
Initial  -3.20400766E+003                                        126.33  <-- SCF
      1  -3.19046351E+003                   -4.23254540E-001     127.17  <-- SCF
      2  -3.19066497E+003                    6.29546317E-003     128.34  <-- SCF
      3  -3.19055967E+003                   -3.29043254E-003     129.35  <-- SCF
      4  -3.19063425E+003                    2.33042541E-003     130.36  <-- SCF
      5  -3.19063796E+003                    1.16020053E-004     131.49  <-- SCF
      6  -3.19063831E+003                    1.08646392E-005     132.37  <-- SCF
      7  -3.19063820E+003                   -3.37815107E-006     133.16  <-- SCF
      8  -3.19063796E+003                   -7.52062704E-006     134.03  <-- SCF
      9  -3.19063791E+003                   -1.38463373E-006     134.80  <-- SCF
     10  -3.19063793E+003                    5.67266890E-007     135.57  <-- SCF
------------------------------------------------------------------------ <-- SCF
 
Final energy =  -3190.637933035     eV
(energy not corrected for finite basis set)
 
(SEDC) Total Energy Correction : -0.722994E+00 eV

Dispersion corrected final energy* =  -3191.360927397     eV
 
 ************************************** Forces **************************************
 *                                                                                  *
 *                           Cartesian components (eV/A)                            *
 * -------------------------------------------------------------------------------- *
 *                         x                    y                    z              *
 *                                                                                  *
 * H               1      0.03816             -0.06050              0.12800         *
 * H               2      0.04570             -0.01104              0.12970         *
 * H               3     -0.09429              0.00265             -0.00377         *
 * H               4     -0.04721              0.10413              0.00338         *
 * H               5      0.11578              0.00216             -0.10312         *
 * H               6      0.06337             -0.10504             -0.13379         *
 * H               7     -0.06422              0.18782             -0.00869         *
 * H               8     -0.18266              0.01496             -0.03442         *
 * H               9     -0.01164             -0.03038              0.00007         *
 * H              10      0.02614              0.05084              0.05703         *
[...]
 * H              19      0.00437             -0.00233              0.00210         *
 * H              20     -0.00478             -0.00183             -0.00340         *
 * C               1     -0.00217              0.00498              0.00418         *
 * C               2     -0.00605              0.00053             -0.00117         *
 * C               3     -0.00289              0.00141             -0.00289         *
 * C               4      0.01165             -0.00507             -0.00017         *
 * C               5     -0.00050              0.00394              0.00261         *
 * C               6     -0.00377              0.00029              0.00044         *
 * C               7     -0.00610             -0.00074             -0.00432         *
 * N               1     -0.01147             -0.01698             -0.00195         *
 * O               1      0.01362              0.01301              0.00948         *
 * O               2     -0.00300              0.01101             -0.00787         *
 * O               3     -0.00106             -0.00674             -0.00924         *
 * Si              1      0.00974             -0.00501             -0.00562         *
 *                                                                                  *
 ************************************************************************************
 
 Pseudo atomic calculation performed for H 1s1
 
 Converged in 13 iterations to a total energy of -12.4790 eV
 
 Pseudo atomic calculation performed for C 2s2 2p2
 
 Converged in 17 iterations to a total energy of -148.5208 eV
 
 Pseudo atomic calculation performed for N 2s2 2p3
 
 Converged in 21 iterations to a total energy of -268.1820 eV
 
 Pseudo atomic calculation performed for O 2s2 2p4
 
 Converged in 23 iterations to a total energy of -432.6536 eV
 
 Pseudo atomic calculation performed for Si 3s2 3p2
 
 Converged in 11 iterations to a total energy of -165.0683 eV
Charge spilling parameter for spin component 1 = 1.56%
 
            Orbital Populations       
     Ion    Atom   Orbital             Charge
  -------------------------------------------
      H     1      S                    0.687
      H     2      S                    0.688
      H     3      S                    0.734
      H     4      S                    0.730
      H     5      S                    0.690
      H     6      S                    0.687
      H     7      S                    0.726
      H     8      S                    0.725
      H     9      S                    0.721
      H    10      S                    0.728
      H    11      S                    0.460
      H    12      S                    0.457
      H    13      S                    0.464
      H    14      S                    0.509
      H    15      S                    0.508
      H    16      S                    0.727
      H    17      S                    0.726
      H    18      S                    0.696
      H    19      S                    0.730
      H    20      S                    0.728
      C     1      S                    1.302
      C     1      Px                   1.103
      C     1      Py                   1.221
      C     1      Pz                   0.780
      C     2      S                    1.298
      C     2      Px                   1.094
      C     2      Py                   1.172
      C     2      Pz                   0.957
      C     3      S                    1.305
      C     3      Px                   1.077
      C     3      Py                   1.197
      C     3      Pz                   0.824
      C     4      S                    1.293
      C     4      Px                   1.118
      C     4      Py                   1.180
      C     4      Pz                   0.938
      C     5      S                    1.406
      C     5      Px                   1.184
      C     5      Py                   1.219
      C     5      Pz                   1.152
      C     6      S                    1.305
      C     6      Px                   1.105
      C     6      Py                   1.182
      C     6      Pz                   0.919
      C     7      S                    1.400
      C     7      Px                   1.130
      C     7      Py                   1.182
      C     7      Pz                   1.082
      N     1      S                    1.586
      N     1      Px                   1.375
      N     1      Py                   1.417
      N     1      Pz                   1.257
      O     1      S                    1.855
      O     1      Px                   1.694
      O     1      Py                   1.835
      O     1      Pz                   1.711
      O     2      S                    1.856
      O     2      Px                   1.845
      O     2      Py                   1.627
      O     2      Pz                   1.772
      O     3      S                    1.856
      O     3      Px                   1.697
      O     3      Py                   1.835
      O     3      Pz                   1.722
     Si     1      S                    0.716
     Si     1      Px                   0.357
     Si     1      Py                   0.327
     Si     1      Pz                   0.414
  -------------------------------------------
                           Total:      74.000
  -------------------------------------------
 
     Atomic Populations (Mulliken)
     -----------------------------
Species          Ion     s       p       d       f      Total   Charge (e)
==========================================================================
  H               1     0.687   0.000   0.000   0.000   0.687     0.313
  H               2     0.688   0.000   0.000   0.000   0.688     0.312
  H               3     0.734   0.000   0.000   0.000   0.734     0.266
  H               4     0.730   0.000   0.000   0.000   0.730     0.270
  H               5     0.690   0.000   0.000   0.000   0.690     0.310
  H               6     0.687   0.000   0.000   0.000   0.687     0.313
  H               7     0.726   0.000   0.000   0.000   0.726     0.274
  H               8     0.725   0.000   0.000   0.000   0.725     0.275
  H               9     0.721   0.000   0.000   0.000   0.721     0.279
  H              10     0.728   0.000   0.000   0.000   0.728     0.272
  H              11     0.460   0.000   0.000   0.000   0.460     0.540
  H              12     0.457   0.000   0.000   0.000   0.457     0.543
  H              13     0.464   0.000   0.000   0.000   0.464     0.536
  H              14     0.509   0.000   0.000   0.000   0.509     0.491
  H              15     0.508   0.000   0.000   0.000   0.508     0.492
  H              16     0.727   0.000   0.000   0.000   0.727     0.273
  H              17     0.726   0.000   0.000   0.000   0.726     0.274
  H              18     0.696   0.000   0.000   0.000   0.696     0.304
  H              19     0.730   0.000   0.000   0.000   0.730     0.270
  H              20     0.728   0.000   0.000   0.000   0.728     0.272
  C               1     1.302   3.104   0.000   0.000   4.405    -0.405
  C               2     1.298   3.223   0.000   0.000   4.522    -0.522
  C               3     1.305   3.098   0.000   0.000   4.402    -0.402
  C               4     1.293   3.236   0.000   0.000   4.529    -0.529
  C               5     1.406   3.555   0.000   0.000   4.961    -0.961
  C               6     1.305   3.206   0.000   0.000   4.511    -0.511
  C               7     1.400   3.394   0.000   0.000   4.794    -0.794
  N               1     1.586   4.049   0.000   0.000   5.635    -0.635
  O               1     1.855   5.240   0.000   0.000   7.095    -1.095
  O               2     1.856   5.244   0.000   0.000   7.101    -1.101
  O               3     1.856   5.255   0.000   0.000   7.111    -1.111
  Si              1     0.716   1.097   0.000   0.000   1.813     2.187
==========================================================================
 
                 Bond                   Population      Length (A)
======================================================================
              H 12 -- O 1                    0.53        0.96826
              H 13 -- O 2                    0.53        0.96932
              H 11 -- O 3                    0.53        0.96978
              H 15 -- N 1                    0.67        1.02892
              H 14 -- N 1                    0.67        1.03043
              H 18 -- C 7                    0.81        1.09798
              H 2  -- C 1                    0.85        1.09831
              H 5  -- C 3                    0.85        1.09906
              H 1  -- C 1                    0.85        1.09915
              H 20 -- C 7                    0.81        1.09939
              H 6  -- C 3                    0.85        1.09952
              H 19 -- C 7                    0.81        1.10024
              H 9  -- C 5                    0.83        1.10073
              H 17 -- C 6                    0.84        1.10199
              H 16 -- C 6                    0.84        1.10245
              H 10 -- C 5                    0.82        1.10247
              H 7  -- C 4                    0.85        1.10253
              H 8  -- C 4                    0.85        1.10254
              H 3  -- C 2                    0.85        1.10399
              H 4  -- C 2                    0.84        1.10487
               C 1 -- N 1                    0.51        1.51139
               C 3 -- N 1                    0.50        1.51202
               C 3 -- C 4                    0.71        1.51796
               C 1 -- C 2                    0.71        1.51855
               C 6 -- C 7                    0.65        1.52735
               C 4 -- C 5                    0.65        1.53412
               C 2 -- C 6                    0.68        1.53447
              H 14 -- H 15                  -0.12        1.64135
               O 1 -- Si 1                   0.51        1.64183
               O 3 -- Si 1                   0.49        1.64810
               O 2 -- Si 1                   0.50        1.65089
              H 16 -- H 17                  -0.12        1.77027
              H 9  -- H 10                  -0.10        1.77459
              H 18 -- H 20                  -0.10        1.77520
              H 7  -- H 8                   -0.11        1.77571
              H 18 -- H 19                  -0.10        1.77692
              H 3  -- H 4                   -0.12        1.77997
              H 19 -- H 20                  -0.10        1.78225
              H 1  -- H 2                   -0.11        1.78351
              H 5  -- H 6                   -0.11        1.78951
               C 5 -- Si 1                   0.57        1.87759
              H 14 -- C 3                   -0.12        2.08686
              H 14 -- C 1                   -0.12        2.08811
              H 15 -- C 3                   -0.12        2.08878
              H 15 -- C 1                   -0.12        2.08929
              H 1  -- N 1                   -0.11        2.09922
              H 2  -- N 1                   -0.11        2.09989
              H 6  -- N 1                   -0.11        2.10132
              H 5  -- N 1                   -0.11        2.10185
              H 7  -- C 3                   -0.14        2.15398
              H 8  -- C 3                   -0.14        2.15722
              H 3  -- C 1                   -0.14        2.15769
              H 17 -- C 2                   -0.14        2.16035
              H 16 -- C 2                   -0.13        2.16178
              H 4  -- C 1                   -0.13        2.16485
              H 8  -- C 5                   -0.13        2.16498
              H 3  -- C 6                   -0.12        2.16652
              H 16 -- C 7                   -0.13        2.16689
              H 4  -- C 6                   -0.12        2.16726
              H 17 -- C 7                   -0.13        2.16753
              H 7  -- C 5                   -0.13        2.16799
              H 9  -- C 4                   -0.12        2.17492
              H 20 -- C 6                   -0.12        2.17699
              H 19 -- C 6                   -0.12        2.17702
              H 18 -- C 6                   -0.11        2.17821
              H 10 -- C 4                   -0.12        2.17941
              H 2  -- C 2                   -0.12        2.18203
              H 1  -- C 2                   -0.12        2.18215
              H 5  -- C 4                   -0.12        2.18239
              H 6  -- C 4                   -0.12        2.18638
              H 11 -- Si 1                  -0.13        2.25953
              H 12 -- Si 1                  -0.13        2.28093
              H 13 -- Si 1                  -0.14        2.28489
              H 6  -- H 14                  -0.04        2.38906
              H 1  -- H 14                  -0.03        2.41157
              H 2  -- H 15                  -0.03        2.41276
              H 2  -- H 5                   -0.02        2.42944
              H 5  -- H 15                  -0.03        2.43327
              H 7  -- H 15                  -0.01        2.45497
              H 9  -- Si 1                  -0.12        2.45787
              H 1  -- H 6                   -0.02        2.46830
              H 10 -- Si 1                  -0.11        2.46852
              H 4  -- H 17                  -0.04        2.49587
               C 4 -- N 1                   -0.14        2.49696
              H 3  -- H 14                  -0.01        2.49961
              H 8  -- H 14                  -0.01        2.50379
              H 17 -- H 18                  -0.03        2.50601
              H 8  -- H 9                   -0.03        2.51018
               C 2 -- N 1                   -0.13        2.51173
               C 1 -- C 6                   -0.15        2.51350
              H 16 -- H 18                  -0.03        2.51496
              H 5  -- H 7                   -0.03        2.51549
              H 16 -- H 19                  -0.03        2.51885
               C 3 -- C 5                   -0.15        2.51979
              H 3  -- H 16                  -0.03        2.52202
              H 2  -- H 4                   -0.03        2.52495
              H 1  -- H 3                   -0.03        2.52532
              H 6  -- H 8                   -0.03        2.52659
              H 4  -- H 15                  -0.00        2.52758
              H 1  -- H 16                  -0.01        2.52925
              H 17 -- H 20                  -0.03        2.52963
              H 7  -- H 10                  -0.03        2.53276
               C 2 -- C 7                   -0.15        2.53782
               C 1 -- C 3                   -0.14        2.54463
              H 3  -- H 19                  -0.01        2.56618
              H 2  -- H 17                  -0.01        2.58170
              H 4  -- H 20                  -0.01        2.58609
              H 5  -- H 10                  -0.01        2.59744
              H 6  -- H 9                   -0.01        2.61341
               O 1 -- O 3                   -0.08        2.64966
              H 15 -- C 4                   -0.04        2.65849
              H 11 -- O 1                   -0.01        2.69713
              H 14 -- C 2                   -0.03        2.69901
              H 14 -- C 4                   -0.03        2.70374
              H 15 -- C 2                   -0.03        2.70391
              H 5  -- C 1                   -0.04        2.70762
              H 16 -- C 1                   -0.04        2.71438
              H 1  -- C 3                   -0.04        2.72167
              H 2  -- C 3                   -0.04        2.72848
              H 7  -- N 1                   -0.03        2.73060
              H 8  -- N 1                   -0.03        2.73206
              H 3  -- N 1                   -0.03        2.74720
              H 17 -- C 1                   -0.04        2.74803
              H 6  -- C 1                   -0.03        2.75103
               O 2 -- O 3                   -0.07        2.75113
              H 3  -- C 7                   -0.04        2.75289
               C 5 -- O 2                   -0.11        2.75927
              H 10 -- C 3                   -0.04        2.76077
               O 1 -- O 2                   -0.07        2.76196
              H 4  -- N 1                   -0.02        2.76753
              H 9  -- C 3                   -0.04        2.77484
              H 8  -- O 3                    0.00        2.77959
              H 7  -- O 2                    0.00        2.78213
              H 4  -- C 7                   -0.03        2.78336
              H 1  -- C 6                   -0.03        2.78721
              H 20 -- C 2                   -0.04        2.79415
              H 2  -- C 6                   -0.03        2.80127
              H 19 -- C 2                   -0.04        2.80594
              H 5  -- C 5                   -0.03        2.80883
              H 6  -- C 5                   -0.03        2.80913
               C 4 -- Si 1                  -0.15        2.82407
               C 5 -- O 3                   -0.10        2.82432
              H 12 -- O 2                   -0.01        2.92071
               C 5 -- O 1                   -0.09        2.94348
              H 10 -- O 2                   -0.01        2.94940
              H 1  -- H 15                   0.03        2.95734
              H 2  -- H 14                   0.03        2.95735
              H 5  -- H 14                   0.03        2.95752
              H 6  -- H 15                   0.03        2.95770
              H 8  -- H 15                  -0.00        2.97142
              H 7  -- Si 1                  -0.05        2.98372
              H 1  -- H 5                   -0.00        2.99032
              H 8  -- Si 1                  -0.05        2.99068
======================================================================
 
 
     Hirshfeld Analysis
     ------------------
Species   Ion     Hirshfeld Charge (e)
======================================
  H        1                 0.07
  H        2                 0.07
  H        3                 0.05
  H        4                 0.05
  H        5                 0.07
  H        6                 0.07
  H        7                 0.05
  H        8                 0.05
  H        9                 0.05
  H       10                 0.05
  H       11                 0.17
  H       12                 0.18
  H       13                 0.17
  H       14                 0.18
  H       15                 0.18
  H       16                 0.05
  H       17                 0.05
  H       18                 0.06
  H       19                 0.04
  H       20                 0.05
  C        1                 0.01
  C        2                -0.06
  C        3                 0.01
  C        4                -0.06
  C        5                -0.14
  C        6                -0.05
  C        7                -0.10
  N        1                 0.03
  O        1                -0.28
  O        2                -0.29
  O        3                -0.29
  Si       1                 0.48
======================================
 

Writing analysis data to Conf_0023.castep_bin

Writing model to Conf_0023.check
 
 A BibTeX formatted list of references used in this run has been written to 
 Conf_0023.bib
 
Initialisation time =     25.20 s
Calculation time    =    623.81 s
Finalisation time   =      1.19 s
Total time          =    650.20 s
Peak Memory Use     = 7923336 kB
 
Overall parallel efficiency rating: Satisfactory (66%)
 
Data was distributed by:-
G-vector (48-way); efficiency rating: Satisfactory (67%)
High Water Mark     = 1899740 kB
