 Job started on host drago31060179.mgmt.cc.csic.es
 at Sun Mar 31 01:01:03 2024

 +-------------------------------------------------+
 |                                                 |
 |      CCC   AA    SSS  TTTTT  EEEEE  PPPP        |
 |     C     A  A  S       T    E      P   P       |
 |     C     AAAA   SS     T    EEE    PPPP        |
 |     C     A  A     S    T    E      P           |
 |      CCC  A  A  SSS     T    EEEEE  P           |
 |                                                 |
 +-------------------------------------------------+
 |                                                 |
 | Materials Studio CASTEP version 2024            |
 | Ab Initio Total Energy Program                  |
 |                                                 |
 | Authors:                                        |
 | M. Segall, M. Probert, C. Pickard, P. Hasnip,   |
 | S. Clark, K. Refson, J. R. Yates,               |
 | A. Bartok-Partay, M. Payne                      |
 |                                                 |
 | Contributors:                                   |
 | P. Lindan, P. Haynes, J. White, V. Milman,      |
 | N. Govind, M. Gibson, P. Tulip, V. Cocula,      |
 | B. Montanari, D. Quigley, M. Glover,            |
 | L. Bernasconi, A. Perlov, M. Plummer,           |
 | E. McNellis, J. Meyer, J. Gale, D. Jochym       |
 | J. Aarons, B. Walker, R. Gillen, D. Jones       |
 | T. Green, I. J. Bush, C. J. Armstrong,          |
 | E. J. Higgins, E. L. Brown, M. S. McFly,        |
 | J. Wilkins, B-C. Shih, P. J. P. Byrne,          |
 | R. J. Maurer, J. C. Womack, J. Dziedzic,        |
 | L. LeBlanc, T. K. Stenczel, J. Kermode,         |
 | S. Sturniolo, B. Shi, B. Durham, M. Evans,      |
 | M. J. Smith, A. Tamerus, Z. Hawkhead,           |
 | V. Ravindran, T. Hollins, S. A. Joyce,          |
 | R. T. Strong, A. M. Reilly                      |
 |                                                 |
 | Copyright (c) 2000 - 2023                       |
 |                                                 |
 | Please cite                                     |
 |                                                 |
 |     "First principles methods using CASTEP"     |
 |                                                 |
 |         Zeitschrift fuer Kristallographie       |
 |           220(5-6) pp. 567-570 (2005)           |
 |                                                 |
 | S. J. Clark, M. D. Segall, C. J. Pickard,       |
 | P. J. Hasnip, M. J. Probert, K. Refson,         |
 | M. C. Payne                                     |
 |                                                 |
 |       in all publications arising from          |
 |              your use of CASTEP                 |
 |                                                 |
 +-------------------------------------------------+
 |                                                 |
 |              http://www.castep.org              |
 |                                                 |
 +-------------------------------------------------+
 
 
 This version was compiled for x86_64-rhel7-intel19.0 on Oct 24 2023
 Code version:    a9f326b
 Intel(R) Math Kernel Library Version 2019.0.4 
 Fundamental constants values: CODATA 2018
 
License checkout of MS_castep successful
 
 
 Atomic calculation performed for H: 1s1
 
 Converged in 41 iterations to an ae energy of -12.488 eV
 
 Identity difference: 2.63E-05
 
   ============================================================                
   | Pseudopotential Report - Date of generation 31-03-2024   |                
   ------------------------------------------------------------                
   | Element: H Ionic charge:  1.00 Level of theory: PBE      |                
   | Atomic Solver: Koelling-Harmon                           |                
   |                                                          |                
   |               Reference Electronic Structure             |                
   |         Orbital         Occupation         Energy        |                
   |            1s              1.000           -0.239        |                
   |                                                          |                
   |                 Pseudopotential Definition               |                
   |        Beta     l      e      Rc     scheme   norm       |                
   |          1      0   -0.239   0.599     qc      0         |                
   |          2      0    0.250   0.599     qc      0         |                
   |         loc     1    0.000   0.599     pn      0         |                
   |                                                          |                
   | Augmentation charge Rinner = 0.421                       |                
   | No partial core correction                               |                
   ------------------------------------------------------------                
   | "1|0.6|9|10|15|10UU(qc=8)[]"                             |                
   ------------------------------------------------------------                
   |      Author: Chris J. Pickard, Cambridge University      |                
   ============================================================                
 
 Doing a self consistent calculation for the test configuration
 
 Atomic calculation performed for H: 1s1
 
 Converged in 41 iterations to an ae energy of -12.488 eV
 
 ---------------------------------------
 AE eigenvalue nl 10 =       -0.23860176
 ---------------------------------------
 PS eigenvalue nl 10 =       -0.23857601
 ---------------------------------------
 Maximum eigenvalue error:   2.57E-05
 
 Derived cutoff energies: C=   1 M=   6 F=  10 E=  20
 
 Checking for ghost states up to   1.51185 Ha
 
 No Ghost States Identified
 
 ***************************************
 
 Atomic calculation performed for C: 1s2 2s2 2p2
 
 Converged in 54 iterations to an ae energy of -1027.632 eV
 
 Identity difference: 2.37E-04
 
   ============================================================                
   | Pseudopotential Report - Date of generation 31-03-2024   |                
   ------------------------------------------------------------                
   | Element: C Ionic charge:  4.00 Level of theory: PBE      |                
   | Atomic Solver: Koelling-Harmon                           |                
   |                                                          |                
   |               Reference Electronic Structure             |                
   |         Orbital         Occupation         Energy        |                
   |            2s              2.000           -0.505        |                
   |            2p              2.000           -0.194        |                
   |                                                          |                
   |                 Pseudopotential Definition               |                
   |        Beta     l      e      Rc     scheme   norm       |                
   |          1      0   -0.505   1.395     qc      0         |                
   |          2      0    0.250   1.395     qc      0         |                
   |          3      1   -0.194   1.395     qc      0         |                
   |          4      1    0.250   1.395     qc      0         |                
   |         loc     2    0.000   1.395     pn      0         |                
   |                                                          |                
   | Augmentation charge Rinner = 0.983                       |                
   | Partial core correction Rc = 0.983                       |                
   ------------------------------------------------------------                
   | "2|1.4|11|12|14.7|20UU:21UU(qc=7)[]"                     |                
   ------------------------------------------------------------                
   |      Author: Chris J. Pickard, Cambridge University      |                
   ============================================================                
 
 Doing a self consistent calculation for the test configuration
 
 Atomic calculation performed for C: 1s2 2s2 2p2
 
 Converged in 54 iterations to an ae energy of -1027.632 eV
 
 ---------------------------------------
 AE eigenvalue nl 10 =      -10.04653081
 AE eigenvalue nl 20 =       -0.50533429
 AE eigenvalue nl 21 =       -0.19423807
 ---------------------------------------
 PS eigenvalue nl 20 =       -0.50531853
 PS eigenvalue nl 21 =       -0.19422214
 ---------------------------------------
 Maximum eigenvalue error:   1.59E-05
 
 Derived cutoff energies: C=   6 M=  10 F=  12 E=  16
 
 Checking for ghost states up to   1.47183 Ha
 
 No Ghost States Identified
 
 ***************************************
 
 Atomic calculation performed for N: 1s2 2s2 2p3
 
 Converged in 55 iterations to an ae energy of -1481.742 eV
 
 Identity difference: 2.27E-04
 
   ============================================================                
   | Pseudopotential Report - Date of generation 31-03-2024   |                
   ------------------------------------------------------------                
   | Element: N Ionic charge:  5.00 Level of theory: PBE      |                
   | Atomic Solver: Koelling-Harmon                           |                
   |                                                          |                
   |               Reference Electronic Structure             |                
   |         Orbital         Occupation         Energy        |                
   |            2s              2.000           -0.683        |                
   |            2p              3.000           -0.261        |                
   |                                                          |                
   |                 Pseudopotential Definition               |                
   |        Beta     l      e      Rc     scheme   norm       |                
   |          1      0   -0.683   1.100     qc      0         |                
   |          2      0    0.250   1.100     qc      0         |                
   |          3      1   -0.261   1.100     qc      0         |                
   |          4      1    0.250   1.100     qc      0         |                
   |         loc     2    0.000   1.100     pn      0         |                
   |                                                          |                
   | Augmentation charge Rinner = 0.769                       |                
   | Partial core correction Rc = 0.769                       |                
   ------------------------------------------------------------                
   | "2|1.1|12|16|19|20UU:21UU(qc=7)[]"                       |                
   ------------------------------------------------------------                
   |      Author: Chris J. Pickard, Cambridge University      |                
   ============================================================                
 
 Doing a self consistent calculation for the test configuration
 
 Atomic calculation performed for N: 1s2 2s2 2p3
 
 Converged in 55 iterations to an ae energy of -1481.742 eV
 
 ---------------------------------------
 AE eigenvalue nl 10 =      -14.13820921
 AE eigenvalue nl 20 =       -0.68290611
 AE eigenvalue nl 21 =       -0.26054797
 ---------------------------------------
 PS eigenvalue nl 20 =       -0.68291221
 PS eigenvalue nl 21 =       -0.26051708
 ---------------------------------------
 Maximum eigenvalue error:   3.09E-05
 
 Derived cutoff energies: C=  10 M=  15 F=  18 E=  23
 
 Checking for ghost states up to   1.48495 Ha
 
 No Ghost States Identified
 
 ***************************************
 
 Atomic calculation performed for O: 1s2 2s2 2p4
 
 Converged in 61 iterations to an ae energy of -2040.902 eV
 
 Identity difference: 4.10E-04
 
   ============================================================                
   | Pseudopotential Report - Date of generation 31-03-2024   |                
   ------------------------------------------------------------                
   | Element: O Ionic charge:  6.00 Level of theory: PBE      |                
   | Atomic Solver: Koelling-Harmon                           |                
   |                                                          |                
   |               Reference Electronic Structure             |                
   |         Orbital         Occupation         Energy        |                
   |            2s              2.000           -0.881        |                
   |            2p              4.000           -0.332        |                
   |                                                          |                
   |                 Pseudopotential Definition               |                
   |        Beta     l      e      Rc     scheme   norm       |                
   |          1      0   -0.881   1.100     qc      0         |                
   |          2      0    0.250   1.100     qc      0         |                
   |          3      1   -0.332   1.100     qc      0         |                
   |          4      1    0.250   1.100     qc      0         |                
   |         loc     2    0.000   1.100     pn      0         |                
   |                                                          |                
   | Augmentation charge Rinner = 0.769                       |                
   | Partial core correction Rc = 0.769                       |                
   ------------------------------------------------------------                
   | "2|1.1|14|18|21|20UU:21UU(qc=7)[]"                       |                
   ------------------------------------------------------------                
   |      Author: Chris J. Pickard, Cambridge University      |                
   ============================================================                
 
 Doing a self consistent calculation for the test configuration
 
 Atomic calculation performed for O: 1s2 2s2 2p4
 
 Converged in 61 iterations to an ae energy of -2040.902 eV
 
 ---------------------------------------
 AE eigenvalue nl 10 =      -18.91475256
 AE eigenvalue nl 20 =       -0.88057101
 AE eigenvalue nl 21 =       -0.33186952
 ---------------------------------------
 PS eigenvalue nl 20 =       -0.88059206
 PS eigenvalue nl 21 =       -0.33182157
 ---------------------------------------
 Maximum eigenvalue error:   4.80E-05
 
 Derived cutoff energies: C=  14 M=  17 F=  20 E=  22
 
 Checking for ghost states up to   1.49452 Ha
 
 No Ghost States Identified
 
 ***************************************
 
 Atomic calculation performed for Si: 1s2 2s2 2p6 3s2 3p2
 
 Converged in 54 iterations to an ae energy of -7886.857 eV
 
 Identity difference: 1.35E-04
 
   ============================================================                
   | Pseudopotential Report - Date of generation 31-03-2024   |                
   ------------------------------------------------------------                
   | Element: Si Ionic charge:  4.00 Level of theory: PBE     |                
   | Atomic Solver: Koelling-Harmon                           |                
   |                                                          |                
   |               Reference Electronic Structure             |                
   |         Orbital         Occupation         Energy        |                
   |            3s              2.000           -0.397        |                
   |            3p              2.000           -0.150        |                
   |                                                          |                
   |                 Pseudopotential Definition               |                
   |        Beta     l      e      Rc     scheme   norm       |                
   |          1      0   -0.397   1.797     qc      0         |                
   |          2      0    0.250   1.797     qc      0         |                
   |          3      1   -0.150   1.797     qc      0         |                
   |          4      1    0.250   1.797     qc      0         |                
   |          5      2    0.000   1.797     qc      0         |                
   |          6      2    0.250   1.797     qc      0         |                
   |         loc     3    0.000   1.797     pn      0         |                
   |                                                          |                
   | Augmentation charge Rinner = 1.255                       |                
   | Partial core correction Rc = 1.255                       |                
   ------------------------------------------------------------                
   | "3|1.8|3.6|5|7|30UU:31UU:32UU[]"                         |                
   ------------------------------------------------------------                
   |      Author: Chris J. Pickard, Cambridge University      |                
   ============================================================                
 
 Doing a self consistent calculation for the test configuration
 
 Atomic calculation performed for Si: 1s2 2s2 2p6 3s2 3p2
 
 Converged in 54 iterations to an ae energy of -7886.857 eV
 
 ---------------------------------------
 AE eigenvalue nl 10 =      -65.63192903
 AE eigenvalue nl 20 =       -5.12654326
 AE eigenvalue nl 21 =       -3.51173659
 AE eigenvalue nl 30 =       -0.39736430
 AE eigenvalue nl 31 =       -0.14998156
 ---------------------------------------
 PS eigenvalue nl 30 =       -0.39734922
 PS eigenvalue nl 31 =       -0.14996719
 ---------------------------------------
 Maximum eigenvalue error:   1.51E-05
 
 Derived cutoff energies: C=   1 M=   3 F=   6 E=   6
 
 Checking for ghost states up to   1.41161 Ha
 
 No Ghost States Identified
 
 ***************************************
 
 Pseudo atomic calculation performed for H 1s1
 
 Converged in 13 iterations to a total energy of -12.4790 eV
 
 Pseudo atomic calculation performed for C 2s2 2p2
 
 Converged in 17 iterations to a total energy of -148.5208 eV
 
 Pseudo atomic calculation performed for N 2s2 2p3
 
 Converged in 21 iterations to a total energy of -268.1820 eV
 
 Pseudo atomic calculation performed for O 2s2 2p4
 
 Converged in 23 iterations to a total energy of -432.6536 eV
 
 Pseudo atomic calculation performed for Si 3s2 3p2
 
 Converged in 11 iterations to a total energy of -165.0683 eV
 Calculation parallelised over 48 processes.
 Data is distributed by G-vector(48-way)

 ************************************ Title ************************************
 CASTEP calculation from BIOVIA Materials Studio 2024

 ***************************** General Parameters ******************************
  
 output verbosity                               : normal  (1)
 write checkpoint data to                       : Conf_0011.check
 type of calculation                            : geometry optimization
 stress calculation                             : off
 density difference calculation                 : off
 electron localisation func (ELF) calculation   : off
 Hirshfeld analysis                             : on
 polarisation (Berry phase) analysis            : off
 molecular orbital projected DOS                : off
 deltaSCF calculation                           : off
 unlimited duration calculation
 timing information                             : on
 memory usage estimate                          : on
 write extra output files                       : on
 write final potential to formatted file        : off
 write final density to formatted file          : off
 write BibTeX reference list                    : on
 write OTFG pseudopotential files               : on
 write electrostatic potential file             : on
 write bands file                               : on
 checkpoint writing                             : both castep_bin and check files
  
 output         length unit                     : A
 output           mass unit                     : amu
 output           time unit                     : ps
 output         charge unit                     : e
 output           spin unit                     : hbar/2
 output         energy unit                     : eV
 output          force unit                     : eV/A
 output       velocity unit                     : A/ps
 output       pressure unit                     : GPa
 output     inv_length unit                     : 1/A
 output      frequency unit                     : cm-1
 output force constant unit                     : eV/A**2
 output         volume unit                     : A**3
 output   IR intensity unit                     : (D/A)**2/amu
 output         dipole unit                     : D
 output         efield unit                     : eV/A/e
 output        entropy unit                     : J/mol/K
 output    efield chi2 unit                     : pm/V
  
 wavefunctions paging                           : none
 random number generator seed                   :   10106657
 data distribution                              : optimal for this architecture
 optimization strategy                          : balance speed and memory

 *********************** Exchange-Correlation Parameters ***********************
  
 using functional                               : Perdew Burke Ernzerhof
 relativistic treatment                         : Koelling-Harmon
 DFT+D: Semi-empirical dispersion correction    : on
 SEDC with                                      : G06 correction scheme

 ************************* Pseudopotential Parameters **************************
  
 pseudopotential representation                 : reciprocal space
 <beta|phi> representation                      : reciprocal space
 spin-orbit coupling                            : off

 **************************** Basis Set Parameters *****************************
  
 plane wave basis set cut-off                   :   600.0000   eV
 size of standard grid                          :     1.5000
 size of   fine   gmax                          :    18.8237   1/A
 largest prime factor in FFT                    :          5
 finite basis set correction                    : none

 **************************** Electronic Parameters ****************************
  
 number of  electrons                           :  74.00    
 net charge of system                           : +1.000    
 treating system as non-spin-polarized
 number of bands                                :         37

 ********************* Electronic Minimization Parameters **********************
  
 Method: Treating system as non-metallic,
         and number of  SD  steps               :          1
         and number of  CG  steps               :          4
  
 total energy / atom convergence tol.           : 0.2000E-05   eV
 eigen-energy convergence tolerance             : 0.1000E-05   eV
 max force / atom convergence tol.              : ignored
 convergence tolerance window                   :          3   cycles
 max. number of SCF cycles                      :        100
 periodic dipole correction                     : NONE

 ************************** Density Mixing Parameters **************************
  
 density-mixing scheme                          : Pulay
 max. length of mixing history                  :         20
 charge density mixing amplitude                : 0.5000    
 cut-off energy for mixing                      :  600.0       eV
 charge density mixing g-vector                 :  1.500       1/A

 *********************** Population Analysis Parameters ************************
  
 Population analysis with cutoff                :  3.000       A
 Population analysis output                     : summary and pdos components

 ********************** Geometry Optimization Parameters ***********************
  
 optimization method                            : LBFGS
 max. no. of LBFGS updates                      : unbounded
 preconditioned LBFGS is activated
 preconditioner type                            : EXP
     stabilization constant                     :     0.1000
     parameter A                                :     3.0000
     nearest neighbor distance                  : automatic
     cut-off distance                           : automatic
     parameter mu                               : automatic
 variable cell method                           : fixed basis quality
 max. number of steps                           :        300
 estimated bulk modulus                         :  500.0       GPa
 estimated <frequency>                          :  1668.       cm-1
 geom line minimiser                            : on
 with line minimiser tolerance                  :     0.4000
 total energy convergence tolerance             : 0.2000E-04   eV/atom
        max ionic |force| tolerance             : 0.5000E-01   eV/A
 max ionic |displacement| tolerance             : 0.2000E-02   A
   max |stress component| tolerance             : 0.1000       GPa
 convergence tolerance window                   :          2   steps
 backup results every                           :          5   steps
 write geom trajectory file                     : on

 *******************************************************************************
  
 
                           -------------------------------
                                      Unit Cell
                           -------------------------------
        Real Lattice(A)                      Reciprocal Lattice(1/A)
    13.4840002    -0.0000006    -0.0000006        0.465973392   0.000000000   0.000000000
     0.0000000    20.4006996    -0.0000009        0.000000013   0.307988717   0.000000000
     0.0000000     0.0000000    45.0000000        0.000000006   0.000000006   0.139626340
 
                       Lattice parameters(A)       Cell Angles
                    a =     13.484000          alpha =   90.000003
                    b =     20.400700          beta  =   90.000003
                    c =     45.000000          gamma =   90.000003
 
                       Current cell volume =         12378.736702       A**3
                                   density =             0.015698   AMU/A**3
                                           =             0.026068     g/cm^3
 
                           -------------------------------
                                     Cell Contents
                           -------------------------------
                         Total number of ions in cell =   32
                      Total number of species in cell =    5
                        Max number of any one species =   20
 
            xxxxxxxxxxxxxxxxxxxxxxxxxxxxxxxxxxxxxxxxxxxxxxxxxxxxxxxxxxxx
            x  Element    Atom        Fractional coordinates of atoms  x
            x            Number           u          v          w      x
            x----------------------------------------------------------x
            x  H            1         0.460916   0.416935   0.557581   x 
            x  H            2         0.525034   0.489081   0.545154   x 
            x  H            3         0.401075   0.478886   0.602823   x 
            x  H            4         0.463938   0.550354   0.590370   x 
            x  H            5         0.357737   0.414563   0.513285   x 
            x  H            6         0.281484   0.483017   0.504194   x 
            x  H            7         0.508695   0.477706   0.495439   x 
            x  H            8         0.431883   0.546069   0.487092   x 
            x  H            9         0.334685   0.476809   0.451168   x 
            x  H           10         0.409407   0.408144   0.459998   x 
            x  H           11         0.536351   0.584308   0.407084   x 
            x  H           12         0.514216   0.460592   0.379290   x 
            x  H           13         0.665825   0.468442   0.423577   x 
            x  H           14         0.306304   0.480430   0.554965   x 
            x  H           15         0.365805   0.544788   0.542112   x 
            x  H           16         0.564301   0.419652   0.606475   x 
            x  H           17         0.626688   0.491106   0.594210   x 
            x  H           18         0.634206   0.481671   0.649470   x 
            x  H           19         0.502626   0.480400   0.651636   x 
            x  H           20         0.565070   0.552425   0.639370   x 
            x  C            1         0.461808   0.470969   0.558331   x 
            x  C            2         0.466235   0.496257   0.590230   x 
            x  C            3         0.356362   0.468561   0.511703   x 
            x  C            4         0.432905   0.492122   0.488935   x 
            x  C            5         0.409798   0.462141   0.458319   x 
            x  C            6         0.560519   0.473764   0.606378   x 
            x  C            7         0.565790   0.498439   0.638405   x 
            x  N            1         0.365419   0.495240   0.542875   x 
            x  O            1         0.475739   0.451797   0.396456   x 
            x  O            2         0.613719   0.465155   0.437648   x 
            x  O            3         0.500959   0.565790   0.423234   x 
            x  Si           1         0.501605   0.486578   0.428076   x 
            xxxxxxxxxxxxxxxxxxxxxxxxxxxxxxxxxxxxxxxxxxxxxxxxxxxxxxxxxxxx
 
 
                         No user defined ionic velocities
 
                           -------------------------------
                                   Details of Species
                           -------------------------------
 
                               Mass of species in AMU
                                    H    1.0080000
                                    C   12.0109997
                                    N   14.0070000
                                    O   15.9989996
                                    Si   28.0849991
 
                          Electric Quadrupole Moment (Barn)
                                    H    0.0028600 Isotope  2
                                    C    0.0332700 Isotope 11
                                    N    0.0204400 Isotope 14
                                    O   -0.0255800 Isotope 17
                                    Si    1.0000000 No Isotope Defined
 
                          Files used for pseudopotentials:
                                    H 1|0.6|9|10|15|10UU(qc=8)[]
                                    C 2|1.4|11|12|14.7|20UU:21UU(qc=7)[]
                                    N 2|1.1|12|16|19|20UU:21UU(qc=7)[]
                                    O 2|1.1|14|18|21|20UU:21UU(qc=7)[]
                                    Si 3|1.8|3.6|5|7|30UU:31UU:32UU[]
 
                           -------------------------------
                              k-Points For BZ Sampling
                           -------------------------------
                       MP grid size for SCF calculation is  1  1  1
                            with an offset of   0.000  0.000  0.000
                       Number of kpoints used =             1
 
                           -------------------------------
                               Symmetry and Constraints
                           -------------------------------
 
                      Maximum deviation from symmetry =  0.00000         ANG
 
                      Number of symmetry operations   =           1
                      Number of nonlinear constraints =           3
         There are no ionic constraints specified or generated for this cell
                      Point group of crystal =     1: C1, 1, 1
                      Space group of crystal =     1: P1, P 1
 
             Set iprint > 1 for details on symmetry rotations/translations
 
                         Centre of mass is NOT constrained
 
                         Number of cell constraints= 6
                         Cell constraints are:  0 0 0 0 0 0
 
                         External pressure/stress (GPa)
                          0.00000   0.00000   0.00000
                                    0.00000   0.00000
                                              0.00000
 
                                --------------------
                                  DFT-D parameters
                                --------------------
 
                          Dispersion-correction scheme : G06       
                        Parameter s6 :   0.750000 (default)
                        Parameter d  :  20.000000 (default)
 
        xxxxxxxxxxxxxxxxxxxxxxxxxxxxxxxxxxxxxxxxxxxxxxxxxxxxxxxxxxxxxxxxxxxx
        x              Atomic DFT-D parameters                             x
        x  Species      C6            R0                                   x
        x               eV A^6        Ang                                  x
        x------------------------------------------------------------------x
        x  H             1.4510       1.0010   (default)                   x
        x  C            18.1375       1.4520   (default)                   x
        x  N            12.7481       1.3970   (default)                   x
        x  O             7.2550       1.3420   (default)                   x
        x  Si           95.6622       1.7160   (default)                   x
        xxxxxxxxxxxxxxxxxxxxxxxxxxxxxxxxxxxxxxxxxxxxxxxxxxxxxxxxxxxxxxxxxxxx
 
 
+---------------- MEMORY AND SCRATCH DISK ESTIMATES PER PROCESS --------------+
|                                                     Memory          Disk    |
| Baseline code, static data and system overhead     6530.0 MB         0.0 MB |
| BLAS internal memory storage                          0.0 MB         0.0 MB |
| Model and support data                              540.6 MB         0.0 MB |
| Electronic energy minimisation requirements          31.8 MB         0.0 MB |
| Force calculation requirements                        6.8 MB         0.0 MB |
|                                               ----------------------------- |
| Approx. total storage required per process         7102.3 MB         0.0 MB |
|                                                                             |
| Requirements will fluctuate during execution and may exceed these estimates |
+-----------------------------------------------------------------------------+
Calculating approximate eigenstates for fixed initial Hamiltonian
Cut-off for approx. calculation is  119.774 eV
Improving approx. states at cut-off of  300.000 eV
Resetting cut-off to  600.000 eV
Calculating total energy with cut-off of  600.000 eV.
------------------------------------------------------------------------ <-- SCF
SCF loop      Energy                           Energy gain       Timer   <-- SCF
                                               per atom          (sec)   <-- SCF
------------------------------------------------------------------------ <-- SCF
Initial  -2.97753174E+003                                         31.38  <-- SCF
      1  -3.20440543E+003                    7.08980290E+000      32.29  <-- SCF
      2  -3.20466392E+003                    8.07787160E-003      33.18  <-- SCF
      3  -3.19280741E+003                   -3.70515854E-001      34.22  <-- SCF
      4  -3.19159967E+003                   -3.77421284E-002      35.39  <-- SCF
      5  -3.19091936E+003                   -2.12593980E-002      36.40  <-- SCF
      6  -3.19081598E+003                   -3.23073513E-003      37.71  <-- SCF
      7  -3.19073177E+003                   -2.63144762E-003      38.77  <-- SCF
      8  -3.19071892E+003                   -4.01773860E-004      39.88  <-- SCF
      9  -3.19070227E+003                   -5.20277984E-004      40.89  <-- SCF
     10  -3.19068444E+003                   -5.57177804E-004      41.94  <-- SCF
     11  -3.19065918E+003                   -7.89412626E-004      43.01  <-- SCF
     12  -3.19061499E+003                   -1.38073101E-003      44.02  <-- SCF
     13  -3.19055460E+003                   -1.88739557E-003      45.05  <-- SCF
     14  -3.19048740E+003                   -2.09997304E-003      46.04  <-- SCF
     15  -3.19043211E+003                   -1.72768230E-003      47.05  <-- SCF
     16  -3.19038624E+003                   -1.43338455E-003      48.04  <-- SCF
     17  -3.19035435E+003                   -9.96694557E-004      49.02  <-- SCF
     18  -3.19033737E+003                   -5.30772607E-004      49.94  <-- SCF
     19  -3.19031335E+003                   -7.50572364E-004      50.92  <-- SCF
     20  -3.19028816E+003                   -7.87002181E-004      51.89  <-- SCF
     21  -3.19026409E+003                   -7.52309226E-004      52.84  <-- SCF
     22  -3.19024570E+003                   -5.74563623E-004      53.73  <-- SCF
     23  -3.19023816E+003                   -2.35711615E-004      54.67  <-- SCF
     24  -3.19023651E+003                   -5.14860855E-005      55.57  <-- SCF
     25  -3.19024150E+003                    1.55748960E-004      56.52  <-- SCF
     26  -3.19024710E+003                    1.74959128E-004      57.35  <-- SCF
     27  -3.19025147E+003                    1.36622859E-004      58.15  <-- SCF
     28  -3.19025626E+003                    1.49613170E-004      58.99  <-- SCF
     29  -3.19025986E+003                    1.12556891E-004      59.79  <-- SCF
     30  -3.19026267E+003                    8.79145320E-005      60.58  <-- SCF
     31  -3.19026522E+003                    7.95706168E-005      61.38  <-- SCF
     32  -3.19026698E+003                    5.49519371E-005      62.17  <-- SCF
     33  -3.19026818E+003                    3.77882736E-005      62.96  <-- SCF
     34  -3.19026923E+003                    3.26598301E-005      63.76  <-- SCF
     35  -3.19026975E+003                    1.63334830E-005      64.55  <-- SCF
     36  -3.19027034E+003                    1.82364842E-005      65.34  <-- SCF
     37  -3.19027069E+003                    1.09745189E-005      66.13  <-- SCF
     38  -3.19027118E+003                    1.53790632E-005      66.92  <-- SCF
     39  -3.19027137E+003                    5.85238747E-006      67.73  <-- SCF
     40  -3.19027175E+003                    1.18446663E-005      68.56  <-- SCF
     41  -3.19027194E+003                    6.07588672E-006      69.36  <-- SCF
     42  -3.19027215E+003                    6.60845393E-006      70.15  <-- SCF
     43  -3.19027229E+003                    4.28489046E-006      70.94  <-- SCF
     44  -3.19027235E+003                    1.88742565E-006      71.73  <-- SCF
     45  -3.19027241E+003                    1.91318799E-006      72.52  <-- SCF
     46  -3.19027245E+003                    1.32381276E-006      73.31  <-- SCF
     47  -3.19027249E+003                    1.25969200E-006      74.11  <-- SCF
     48  -3.19027252E+003                    8.91820037E-007      74.90  <-- SCF
     49  -3.19027253E+003                    3.77558245E-007      75.69  <-- SCF
------------------------------------------------------------------------ <-- SCF
 
Final energy =  -3190.272533411     eV
(energy not corrected for finite basis set)
 
(SEDC) Total Energy Correction : -0.738150E+00 eV

Dispersion corrected final energy* =  -3191.010683835     eV

Writing analysis data to Conf_0011.castep_bin

Writing model to Conf_0011.check

WARNING - nonlinear constraints cannot be used with LBFGS algorithm
        - consider setting geom_method=DELOCALIZED
 
        => Turning nonlinear constraints OFF
 
+---------------- MEMORY AND SCRATCH DISK ESTIMATES PER PROCESS --------------+
|                                                     Memory          Disk    |
| Model and support data                              550.1 MB         0.0 MB |
| Electronic energy minimisation requirements          31.8 MB         0.0 MB |
| Geometry minimisation requirements                   34.8 MB         0.0 MB |
|                                               ----------------------------- |
| Approx. total storage required per process          616.7 MB         0.0 MB |
|                                                                             |
| Requirements will fluctuate during execution and may exceed these estimates |
+-----------------------------------------------------------------------------+
 
 
 ************************************** Forces **************************************
 *                                                                                  *
 *                           Cartesian components (eV/A)                            *
 * -------------------------------------------------------------------------------- *
 *                         x                    y                    z              *
 *                                                                                  *
 * H               1     -0.13613              0.19522             -0.11272         *
 * H               2     -0.26251             -0.01289             -0.03660         *
 * H               3     -0.00974             -0.02596             -0.02321         *
 * H               4     -0.01607             -0.03758             -0.05694         *
 * H               5      0.01350              0.15019              0.15587         *
 * H               6      0.09505             -0.07423             -0.02536         *
 * H               7     -0.06627              0.01062              0.09904         *
 * H               8     -0.02714              0.00489              0.11082         *
 * H               9      0.11253             -0.01695             -0.05080         *
 * H              10      0.05593              0.05093             -0.10883         *
 * H              11      0.43566              0.48726             -0.78659         *
 * H              12      0.46007              0.13904             -0.85158         *
 * H              13      0.73314              0.01580             -0.61975         *
 * H              14     -0.51758             -0.10699              0.46271         *
 * H              15      0.01359              0.67939              0.07644         *
 * H              16     -0.05173              0.09036             -0.05406         *
 * H              17     -0.12847             -0.01426             -0.05534         *
 * H              18     -0.10606              0.03688             -0.14339         *
 * H              19      0.05066              0.03639             -0.02431         *
 * H              20     -0.03038             -0.03595             -0.03313         *
 * C               1     -0.29559              0.41235              0.34575         *
 * C               2      0.01595             -0.00138              0.00382         *
 * C               3     -0.61207             -0.18932             -0.71606         *
 * C               4      0.25108              0.14039              0.19086         *
 * C               5      0.18981              0.07875             -0.27436         *
 * C               6      0.24489             -0.14945             -0.00257         *
 * C               7     -0.04620              0.08350              0.16874         *
 * N               1      1.85190             -1.18564             -0.45194         *
 * O               1     -1.17937             -0.73728              0.55239         *
 * O               2     -0.27943             -0.47590              1.53843         *
 * O               3     -0.93798              0.37708              1.23343         *
 * Si              1      0.17895              0.07473             -0.51080         *
 *                                                                                  *
 ************************************************************************************
 EXP precond LBFGS => estimated nearest neighbor distance :  1.628       A
 EXP precond LBFGS => estimated cutoff distance :  3.256       A
 doing test perturbation to get energy scale for EXP preconditioner
 
                           -------------------------------
                                     Cell Contents
                           -------------------------------
 
            xxxxxxxxxxxxxxxxxxxxxxxxxxxxxxxxxxxxxxxxxxxxxxxxxxxxxxxxxxxxxxxxx
            x  Element         Atom        Fractional coordinates of atoms  x
            x                 Number           u          v          w      x
            x---------------------------------------------------------------x
            x  H                 1         0.462041   0.417494   0.557903   x
            x  H                 2         0.526216   0.489366   0.545482   x
            x  H                 3         0.402119   0.479214   0.603112   x
            x  H                 4         0.465067   0.550368   0.590669   x
            x  H                 5         0.358705   0.415129   0.513629   x
            x  H                 6         0.282291   0.483328   0.504542   x
            x  H                 7         0.509866   0.478039   0.495789   x
            x  H                 8         0.432972   0.546103   0.487445   x
            x  H                 9         0.335609   0.477145   0.451528   x
            x  H                10         0.410464   0.408730   0.460358   x
            x  H                11         0.537540   0.584169   0.407445   x
            x  H                12         0.515391   0.460993   0.379646   x
            x  H                13         0.667017   0.468812   0.423939   x
            x  H                14         0.307167   0.480752   0.555288   x
            x  H                15         0.366788   0.544827   0.542442   x
            x  H                16         0.565502   0.420201   0.606762   x
            x  H                17         0.627893   0.491382   0.594506   x
            x  H                18         0.635410   0.481987   0.649719   x
            x  H                19         0.503792   0.480721   0.651882   x
            x  H                20         0.566271   0.552430   0.639628   x
            x  C                 1         0.462934   0.471329   0.558652   x
            x  C                 2         0.467366   0.496511   0.590529   x
            x  C                 3         0.357327   0.468931   0.512048   x
            x  C                 4         0.433995   0.492394   0.489288   x
            x  C                 5         0.410855   0.462536   0.458678   x
            x  C                 6         0.561718   0.474113   0.606665   x
            x  C                 7         0.566991   0.498684   0.638664   x
            x  N                 1         0.366401   0.495498   0.543205   x
            x  O                 1         0.476880   0.452232   0.396816   x
            x  O                 2         0.614926   0.465538   0.438009   x
            x  O                 3         0.502124   0.565734   0.423596   x
            x  Si                1         0.502770   0.486873   0.428438   x
            xxxxxxxxxxxxxxxxxxxxxxxxxxxxxxxxxxxxxxxxxxxxxxxxxxxxxxxxxxxxxxxxx
 
 
------------------------------------------------------------------------ <-- SCF
SCF loop      Energy                           Energy gain       Timer   <-- SCF
                                               per atom          (sec)   <-- SCF
------------------------------------------------------------------------ <-- SCF
Initial  -3.19148226E+003                                         77.69  <-- SCF
      1  -3.19024346E+003                   -3.87122674E-002      78.50  <-- SCF
      2  -3.19026505E+003                    6.74525987E-004      79.69  <-- SCF
      3  -3.19024283E+003                   -6.94389328E-004      80.69  <-- SCF
      4  -3.19025636E+003                    4.22869787E-004      81.69  <-- SCF
      5  -3.19025660E+003                    7.64821623E-006      82.46  <-- SCF
      6  -3.19025670E+003                    3.11964225E-006      83.46  <-- SCF
      7  -3.19025676E+003                    1.72520991E-006      84.23  <-- SCF
      8  -3.19025679E+003                    8.59051039E-007      85.00  <-- SCF
      9  -3.19025682E+003                    1.14307964E-006      85.77  <-- SCF
     10  -3.19025685E+003                    7.63852217E-007      86.53  <-- SCF
------------------------------------------------------------------------ <-- SCF
 
Final energy =  -3190.256847709     eV
(energy not corrected for finite basis set)
 
(SEDC) Total Energy Correction : -0.737777E+00 eV

Dispersion corrected final energy* =  -3190.994624644     eV
 
 ************************************** Forces **************************************
 *                                                                                  *
 *                           Cartesian components (eV/A)                            *
 * -------------------------------------------------------------------------------- *
 *                         x                    y                    z              *
 *                                                                                  *
 * H               1     -0.14695              0.06916             -0.10953         *
 * H               2     -0.26189              0.00249             -0.05385         *
 * H               3      0.00407             -0.03882             -0.01941         *
 * H               4     -0.02738              0.11416             -0.04437         *
 * H               5      0.03729              0.02248              0.16508         *
 * H               6      0.14692             -0.08269             -0.02363         *
 * H               7     -0.09905             -0.00343              0.08773         *
 * H               8     -0.00109              0.15440              0.11348         *
 * H               9      0.15635             -0.02240             -0.05701         *
 * H              10      0.04888             -0.05122             -0.10334         *
 * H              11      0.46582              0.50771             -0.80574         *
 * H              12      0.44803              0.12728             -0.84042         *
 * H              13      0.76580              0.00552             -0.63383         *
 * H              14     -0.48156             -0.10875              0.44878         *
 * H              15      0.00615              0.89914              0.08023         *
 * H              16     -0.05098             -0.04466             -0.06072         *
 * H              17     -0.11956             -0.00333             -0.06550         *
 * H              18     -0.10287              0.01801             -0.13972         *
 * H              19      0.05487              0.02334             -0.01897         *
 * H              20     -0.03258              0.11958             -0.01711         *
 * C               1     -0.31218              0.46689              0.32415         *
 * C               2      0.01206             -0.09034              0.01984         *
 * C               3     -0.63811             -0.12095             -0.75144         *
 * C               4      0.25132              0.04987              0.20927         *
 * C               5      0.16242              0.14977             -0.31265         *
 * C               6      0.22075             -0.10145             -0.02663         *
 * C               7     -0.05116             -0.00899              0.18014         *
 * N               1      1.77139             -1.28225             -0.39007         *
 * O               1     -1.17543             -0.77600              0.53864         *
 * O               2     -0.28822             -0.49117              1.54943         *
 * O               3     -0.94166              0.59960              1.21237         *
 * Si              1      0.17852             -0.10294             -0.45521         *
 *                                                                                  *
 ************************************************************************************
 EXP precond LBFGS => estimated parameter mu :  2.620       eV/A**2
 LBFGS: finished iteration     0 with enthalpy= -3.19101068E+003 eV
  
 +-----------+-----------------+-----------------+------------+-----+ <-- LBFGS
 | Parameter |      value      |    tolerance    |    units   | OK? | <-- LBFGS
 +-----------+-----------------+-----------------+------------+-----+ <-- LBFGS
 |  dE/ion   |   0.000000E+000 |   2.000000E-005 |         eV | No  | <-- LBFGS
 |  |F|max   |   2.221294E+000 |   5.000000E-002 |       eV/A | No  | <-- LBFGS
 |  |dR|max  |   7.557220E-015 |   2.000000E-003 |          A | No  | <-- LBFGS
 +-----------+-----------------+-----------------+------------+-----+ <-- LBFGS
  

================================================================================
 Starting LBFGS iteration          1 ...
================================================================================
  
 +------------+-------------+-------------+-----------------+ <-- min LBFGS
 |    Step    |   lambda    |   F.delta'  |    enthalpy     | <-- min LBFGS
 +------------+-------------+-------------+-----------------+ <-- min LBFGS
 |  previous  |    0.000000 |    1.682709 |    -3191.010684 | <-- min LBFGS
 +------------+-------------+-------------+-----------------+ <-- min LBFGS
  

--------------------------------------------------------------------------------
 LBFGS: starting iteration         1 with trial guess (lambda=  1.000000)
--------------------------------------------------------------------------------
 
                           -------------------------------
                                     Cell Contents
                           -------------------------------
 
            xxxxxxxxxxxxxxxxxxxxxxxxxxxxxxxxxxxxxxxxxxxxxxxxxxxxxxxxxxxxxxxxx
            x  Element         Atom        Fractional coordinates of atoms  x
            x                 Number           u          v          w      x
            x---------------------------------------------------------------x
            x  H                 1         0.461473   0.418038   0.557089   x
            x  H                 2         0.525132   0.489589   0.544781   x
            x  H                 3         0.402137   0.479167   0.602319   x
            x  H                 4         0.464985   0.550616   0.589814   x
            x  H                 5         0.359711   0.414550   0.512830   x
            x  H                 6         0.284014   0.482266   0.503494   x
            x  H                 7         0.510288   0.477785   0.495428   x
            x  H                 8         0.433711   0.546185   0.487085   x
            x  H                 9         0.336631   0.476783   0.450774   x
            x  H                10         0.411140   0.408268   0.459537   x
            x  H                11         0.530401   0.589731   0.408147   x
            x  H                12         0.506902   0.457425   0.378563   x
            x  H                13         0.668939   0.465413   0.426004   x
            x  H                14         0.308519   0.479306   0.555013   x
            x  H                15         0.370052   0.545681   0.541729   x
            x  H                16         0.564707   0.420435   0.605821   x
            x  H                17         0.626719   0.491551   0.593556   x
            x  H                18         0.633784   0.482546   0.648673   x
            x  H                19         0.503021   0.481251   0.651021   x
            x  H                20         0.565071   0.553042   0.638742   x
            x  C                 1         0.462506   0.471986   0.558160   x
            x  C                 2         0.467300   0.496649   0.589748   x
            x  C                 3         0.357459   0.467844   0.510676   x
            x  C                 4         0.435365   0.492330   0.488828   x
            x  C                 5         0.411632   0.462274   0.457875   x
            x  C                 6         0.561561   0.474096   0.605786   x
            x  C                 7         0.565837   0.499280   0.637889   x
            x  N                 1         0.372446   0.493245   0.542208   x
            x  O                 1         0.463721   0.447105   0.397265   x
            x  O                 2         0.612847   0.461421   0.441952   x
            x  O                 3         0.491002   0.570256   0.426216   x
            x  Si                1         0.498094   0.486075   0.428860   x
            xxxxxxxxxxxxxxxxxxxxxxxxxxxxxxxxxxxxxxxxxxxxxxxxxxxxxxxxxxxxxxxxx
 
 
------------------------------------------------------------------------ <-- SCF
SCF loop      Energy                           Energy gain       Timer   <-- SCF
                                               per atom          (sec)   <-- SCF
------------------------------------------------------------------------ <-- SCF
Initial  -3.21291365E+003                                         87.89  <-- SCF
      1  -3.18721002E+003                   -8.03238403E-001      88.73  <-- SCF
      2  -3.19033755E+003                    9.77354572E-002      90.03  <-- SCF
      3  -3.18975210E+003                   -1.82953564E-002      91.16  <-- SCF
      4  -3.18987366E+003                    3.79866944E-003      92.20  <-- SCF
      5  -3.18990726E+003                    1.05023528E-003      93.36  <-- SCF
      6  -3.18991090E+003                    1.13637603E-004      94.38  <-- SCF
      7  -3.18991163E+003                    2.28943799E-005      95.19  <-- SCF
      8  -3.18991227E+003                    1.97857147E-005      96.05  <-- SCF
      9  -3.18991257E+003                    9.52770773E-006      96.86  <-- SCF
     10  -3.18991269E+003                    3.81479788E-006      97.62  <-- SCF
     11  -3.18991273E+003                    1.19853852E-006      98.43  <-- SCF
     12  -3.18991275E+003                    4.96549182E-007      99.19  <-- SCF
------------------------------------------------------------------------ <-- SCF
 
Final energy =  -3189.912747826     eV
(energy not corrected for finite basis set)
 
(SEDC) Total Energy Correction : -0.743465E+00 eV

Dispersion corrected final energy* =  -3190.656212479     eV
 
 ************************************** Forces **************************************
 *                                                                                  *
 *                           Cartesian components (eV/A)                            *
 * -------------------------------------------------------------------------------- *
 *                         x                    y                    z              *
 *                                                                                  *
 * H               1      0.11377              0.06031              0.04318         *
 * H               2      0.08222             -0.01876              0.06245         *
 * H               3     -0.03488              0.00188             -0.01176         *
 * H               4     -0.04551              0.06161             -0.01025         *
 * H               5      0.01926             -0.27462             -0.07019         *
 * H               6     -0.49894              0.22644              0.00434         *
 * H               7      0.13899             -0.08074              0.10894         *
 * H               8     -0.00932              0.04341              0.09320         *
 * H               9     -0.02729              0.01354              0.03188         *
 * H              10      0.03829              0.07317             -0.06652         *
 * H              11     -1.55218             -1.06711              2.29748         *
 * H              12     -1.63285             -0.60470              2.23587         *
 * H              13     -1.99924             -0.23837              1.98137         *
 * H              14      1.23221              0.40284             -0.72457         *
 * H              15      0.05156             -1.39195              0.00138         *
 * H              16     -0.00646             -0.19406             -0.04049         *
 * H              17      0.10335              0.04350             -0.13200         *
 * H              18      0.16611             -0.04362              0.09793         *
 * H              19     -0.09751             -0.02386              0.03402         *
 * H              20     -0.03970              0.10085             -0.06414         *
 * C               1      0.70696             -0.59067             -0.22506         *
 * C               2     -0.13403              0.11034              0.21857         *
 * C               3      0.82484             -0.06403              0.18745         *
 * C               4     -0.29218             -0.14984             -0.41011         *
 * C               5     -0.64257             -0.20747              1.00227         *
 * C               6     -0.11466              0.16220              0.21693         *
 * C               7     -0.06856             -0.01531             -0.23458         *
 * N               1     -2.08232              1.42609              0.43886         *
 * O               1      1.98189              1.20147             -1.12832         *
 * O               2      0.55989              0.75354             -2.53506         *
 * O               3      1.61046             -0.49136             -2.10892         *
 * Si              1      1.64842              0.77530             -1.29415         *
 *                                                                                  *
 ************************************************************************************
  
 +------------+-------------+-------------+-----------------+ <-- min LBFGS
 |    Step    |   lambda    |   F.delta'  |    enthalpy     | <-- min LBFGS
 +------------+-------------+-------------+-----------------+ <-- min LBFGS
 |  previous  |    0.000000 |    1.682709 |    -3191.010684 | <-- min LBFGS
 | trial step |    1.000000 |   -2.418685 |    -3190.656212 | <-- min LBFGS
 +------------+-------------+-------------+-----------------+ <-- min LBFGS
  

--------------------------------------------------------------------------------
 LBFGS: improving iteration         1 with line minimization (lambda=  0.410277)
--------------------------------------------------------------------------------
 
                           -------------------------------
                                     Cell Contents
                           -------------------------------
 
            xxxxxxxxxxxxxxxxxxxxxxxxxxxxxxxxxxxxxxxxxxxxxxxxxxxxxxxxxxxxxxxxx
            x  Element         Atom        Fractional coordinates of atoms  x
            x                 Number           u          v          w      x
            x---------------------------------------------------------------x
            x  H                 1         0.461144   0.417388   0.557380   x
            x  H                 2         0.525074   0.489289   0.545001   x
            x  H                 3         0.401511   0.479002   0.602616   x
            x  H                 4         0.464368   0.550461   0.590142   x
            x  H                 5         0.358547   0.414558   0.513099   x
            x  H                 6         0.282522   0.482709   0.503907   x
            x  H                 7         0.509349   0.477738   0.495434   x
            x  H                 8         0.432633   0.546117   0.487089   x
            x  H                 9         0.335483   0.476798   0.451006   x
            x  H                10         0.410118   0.408195   0.459809   x
            x  H                11         0.533910   0.586533   0.407520   x
            x  H                12         0.511215   0.459293   0.378992   x
            x  H                13         0.667103   0.467199   0.424573   x
            x  H                14         0.307213   0.479969   0.554984   x
            x  H                15         0.367547   0.545155   0.541955   x
            x  H                16         0.564468   0.419973   0.606207   x
            x  H                17         0.626701   0.491288   0.593942   x
            x  H                18         0.634033   0.482030   0.649143   x
            x  H                19         0.502788   0.480749   0.651384   x
            x  H                20         0.565070   0.552678   0.639113   x
            x  C                 1         0.462095   0.471386   0.558261   x
            x  C                 2         0.466672   0.496418   0.590032   x
            x  C                 3         0.356812   0.468267   0.511282   x
            x  C                 4         0.433914   0.492207   0.488891   x
            x  C                 5         0.410551   0.462196   0.458137   x
            x  C                 6         0.560946   0.473900   0.606135   x
            x  C                 7         0.565809   0.498784   0.638193   x
            x  N                 1         0.368302   0.494421   0.542601   x
            x  O                 1         0.470808   0.449872   0.396788   x
            x  O                 2         0.613361   0.463623   0.439414   x
            x  O                 3         0.496874   0.567622   0.424458   x
            x  Si                1         0.500165   0.486372   0.428398   x
            xxxxxxxxxxxxxxxxxxxxxxxxxxxxxxxxxxxxxxxxxxxxxxxxxxxxxxxxxxxxxxxxx
 
 
------------------------------------------------------------------------ <-- SCF
SCF loop      Energy                           Energy gain       Timer   <-- SCF
                                               per atom          (sec)   <-- SCF
------------------------------------------------------------------------ <-- SCF
Initial  -3.20397620E+003                                        100.55  <-- SCF
      1  -3.19023692E+003                   -4.29352503E-001     101.39  <-- SCF
      2  -3.19061693E+003                    1.18754433E-002     102.51  <-- SCF
      3  -3.19035268E+003                   -8.25802359E-003     103.52  <-- SCF
      4  -3.19044113E+003                    2.76422958E-003     104.63  <-- SCF
      5  -3.19046421E+003                    7.21181199E-004     105.70  <-- SCF
      6  -3.19046466E+003                    1.40387056E-005     106.57  <-- SCF
      7  -3.19046506E+003                    1.26407275E-005     107.33  <-- SCF
      8  -3.19046543E+003                    1.16290677E-005     108.09  <-- SCF
      9  -3.19046581E+003                    1.18091017E-005     108.86  <-- SCF
     10  -3.19046619E+003                    1.18690049E-005     109.63  <-- SCF
     11  -3.19046652E+003                    1.01211670E-005     110.40  <-- SCF
     12  -3.19046686E+003                    1.08840749E-005     111.16  <-- SCF
     13  -3.19046701E+003                    4.43808141E-006     111.93  <-- SCF
     14  -3.19046718E+003                    5.32100761E-006     112.71  <-- SCF
     15  -3.19046725E+003                    2.44748059E-006     113.53  <-- SCF
     16  -3.19046733E+003                    2.22915544E-006     114.30  <-- SCF
     17  -3.19046736E+003                    1.13648244E-006     115.07  <-- SCF
     18  -3.19046737E+003                    2.70335078E-007     115.85  <-- SCF
------------------------------------------------------------------------ <-- SCF
 
Final energy =  -3190.467371111     eV
(energy not corrected for finite basis set)
 
(SEDC) Total Energy Correction : -0.740655E+00 eV

Dispersion corrected final energy* =  -3191.208025810     eV
 
 ************************************** Forces **************************************
 *                                                                                  *
 *                           Cartesian components (eV/A)                            *
 * -------------------------------------------------------------------------------- *
 *                         x                    y                    z              *
 *                                                                                  *
 * H               1     -0.03498              0.15175             -0.05071         *
 * H               2     -0.12022             -0.01464              0.00819         *
 * H               3     -0.01300             -0.01077             -0.01562         *
 * H               4     -0.02434              0.00693             -0.03821         *
 * H               5      0.03180             -0.01914              0.06482         *
 * H               6     -0.14089              0.04946             -0.00924         *
 * H               7      0.02088             -0.02188              0.10339         *
 * H               8     -0.00477              0.02535              0.10584         *
 * H               9      0.06179             -0.00057             -0.01286         *
 * H              10      0.05095              0.06480             -0.09102         *
 * H              11     -0.50796             -0.30640              0.74051         *
 * H              12     -0.55502             -0.20975              0.70074         *
 * H              13     -0.63306             -0.09415              0.65322         *
 * H              14      0.28342              0.14316             -0.08313         *
 * H              15      0.01450             -0.27472              0.05380         *
 * H              16     -0.02946             -0.02068             -0.04221         *
 * H              17     -0.03066              0.01360             -0.08589         *
 * H              18      0.00539              0.00901             -0.04138         *
 * H              19     -0.00640              0.01786             -0.00066         *
 * H              20     -0.03085              0.02500             -0.04573         *
 * C               1      0.04688              0.03309              0.07873         *
 * C               2     -0.04230              0.04673              0.09016         *
 * C               3     -0.03417             -0.12467             -0.34174         *
 * C               4      0.03285              0.01969             -0.06003         *
 * C               5     -0.09274             -0.00952              0.19006         *
 * C               6      0.10039             -0.01777              0.09024         *
 * C               7     -0.04947              0.04614              0.00619         *
 * N               1      0.06465             -0.12282             -0.00520         *
 * O               1      0.32735              0.15252             -0.34920         *
 * O               2      0.18383              0.03144             -0.38648         *
 * O               3      0.26534             -0.00896             -0.39707         *
 * Si              1      0.86028              0.41993             -0.82949         *
 *                                                                                  *
 ************************************************************************************
  
 +------------+-------------+-------------+-----------------+ <-- min LBFGS
 |    Step    |   lambda    |   F.delta'  |    enthalpy     | <-- min LBFGS
 +------------+-------------+-------------+-----------------+ <-- min LBFGS
 |  previous  |    0.000000 |    1.682709 |    -3191.010684 | <-- min LBFGS
 | trial step |    1.000000 |   -2.418685 |    -3190.656212 | <-- min LBFGS
 |  line step |    0.410277 |   -0.224273 |    -3191.208026 | <-- min LBFGS
 +------------+-------------+-------------+-----------------+ <-- min LBFGS
  
 LBFGS: finished iteration     1 with enthalpy= -3.19120803E+003 eV
  
 +-----------+-----------------+-----------------+------------+-----+ <-- LBFGS
 | Parameter |      value      |    tolerance    |    units   | OK? | <-- LBFGS
 +-----------+-----------------+-----------------+------------+-----+ <-- LBFGS
 |  dE/ion   |   6.166937E-003 |   2.000000E-005 |         eV | No  | <-- LBFGS
 |  |F|max   |   1.266681E+000 |   5.000000E-002 |       eV/A | No  | <-- LBFGS
 |  |dR|max  |   8.638109E-002 |   2.000000E-003 |          A | No  | <-- LBFGS
 +-----------+-----------------+-----------------+------------+-----+ <-- LBFGS
  

================================================================================
 Starting LBFGS iteration          2 ...
================================================================================
  
 +------------+-------------+-------------+-----------------+ <-- min LBFGS
 |    Step    |   lambda    |   F.delta'  |    enthalpy     | <-- min LBFGS
 +------------+-------------+-------------+-----------------+ <-- min LBFGS
 |  previous  |    0.000000 |    0.672219 |    -3191.208026 | <-- min LBFGS
 +------------+-------------+-------------+-----------------+ <-- min LBFGS
  

--------------------------------------------------------------------------------
 LBFGS: starting iteration         2 with trial guess (lambda=  1.000000)
--------------------------------------------------------------------------------
 
                           -------------------------------
                                     Cell Contents
                           -------------------------------
 
            xxxxxxxxxxxxxxxxxxxxxxxxxxxxxxxxxxxxxxxxxxxxxxxxxxxxxxxxxxxxxxxxx
            x  Element         Atom        Fractional coordinates of atoms  x
            x                 Number           u          v          w      x
            x---------------------------------------------------------------x
            x  H                 1         0.461925   0.418383   0.556821   x
            x  H                 2         0.525370   0.489622   0.544572   x
            x  H                 3         0.402241   0.479450   0.602074   x
            x  H                 4         0.465020   0.550924   0.589557   x
            x  H                 5         0.360294   0.414349   0.512620   x
            x  H                 6         0.283816   0.482369   0.503260   x
            x  H                 7         0.510914   0.477704   0.495397   x
            x  H                 8         0.434234   0.546174   0.487072   x
            x  H                 9         0.337434   0.476909   0.450800   x
            x  H                10         0.411944   0.408557   0.459475   x
            x  H                11         0.527702   0.585896   0.410074   x
            x  H                12         0.504378   0.457183   0.380869   x
            x  H                13         0.661975   0.465494   0.427303   x
            x  H                14         0.310255   0.479703   0.554538   x
            x  H                15         0.370335   0.544618   0.541518   x
            x  H                16         0.564732   0.420678   0.605521   x
            x  H                17         0.626822   0.491962   0.593201   x
            x  H                18         0.633845   0.483033   0.648341   x
            x  H                19         0.502849   0.481755   0.650704   x
            x  H                20         0.564892   0.553625   0.638371   x
            x  C                 1         0.463105   0.472002   0.557909   x
            x  C                 2         0.467353   0.496981   0.589557   x
            x  C                 3         0.358078   0.467696   0.510377   x
            x  C                 4         0.435827   0.492276   0.488675   x
            x  C                 5         0.412092   0.462378   0.458022   x
            x  C                 6         0.561678   0.474493   0.605551   x
            x  C                 7         0.565696   0.499798   0.637540   x
            x  N                 1         0.372173   0.493378   0.541994   x
            x  O                 1         0.465742   0.448131   0.397967   x
            x  O                 2         0.610310   0.462052   0.441604   x
            x  O                 3         0.492337   0.567618   0.426359   x
            x  Si                1         0.501739   0.486997   0.428243   x
            xxxxxxxxxxxxxxxxxxxxxxxxxxxxxxxxxxxxxxxxxxxxxxxxxxxxxxxxxxxxxxxxx
 
 
------------------------------------------------------------------------ <-- SCF
SCF loop      Energy                           Energy gain       Timer   <-- SCF
                                               per atom          (sec)   <-- SCF
------------------------------------------------------------------------ <-- SCF
Initial  -3.20929767E+003                                        117.22  <-- SCF
      1  -3.19011172E+003                   -5.99560867E-001     118.08  <-- SCF
      2  -3.19049396E+003                    1.19449732E-002     119.22  <-- SCF
      3  -3.19033110E+003                   -5.08933542E-003     120.22  <-- SCF
      4  -3.19045192E+003                    3.77549404E-003     121.22  <-- SCF
      5  -3.19045278E+003                    2.69366520E-005     122.30  <-- SCF
      6  -3.19045280E+003                    8.50081649E-007     123.21  <-- SCF
      7  -3.19045238E+003                   -1.33662031E-005     124.06  <-- SCF
      8  -3.19045189E+003                   -1.50891310E-005     124.87  <-- SCF
      9  -3.19045150E+003                   -1.23099610E-005     125.71  <-- SCF
     10  -3.19045169E+003                    5.85752972E-006     126.48  <-- SCF
     11  -3.19045196E+003                    8.56870546E-006     127.27  <-- SCF
     12  -3.19045223E+003                    8.29323311E-006     128.07  <-- SCF
     13  -3.19045251E+003                    8.81812356E-006     128.85  <-- SCF
     14  -3.19045278E+003                    8.38776299E-006     129.63  <-- SCF
     15  -3.19045296E+003                    5.74080743E-006     130.40  <-- SCF
     16  -3.19045310E+003                    4.39411101E-006     131.17  <-- SCF
     17  -3.19045323E+003                    3.91903289E-006     131.94  <-- SCF
     18  -3.19045331E+003                    2.71258632E-006     132.72  <-- SCF
     19  -3.19045340E+003                    2.75817268E-006     133.50  <-- SCF
     20  -3.19045349E+003                    2.69059572E-006     134.28  <-- SCF
     21  -3.19045357E+003                    2.64796605E-006     135.06  <-- SCF
     22  -3.19045361E+003                    1.06089211E-006     135.85  <-- SCF
     23  -3.19045370E+003                    2.97056130E-006     136.63  <-- SCF
     24  -3.19045376E+003                    1.80938641E-006     137.42  <-- SCF
     25  -3.19045381E+003                    1.40672312E-006     138.21  <-- SCF
     26  -3.19045387E+003                    2.12768585E-006     138.99  <-- SCF
     27  -3.19045391E+003                    1.08347783E-006     139.77  <-- SCF
     28  -3.19045403E+003                    3.90549236E-006     140.56  <-- SCF
     29  -3.19045409E+003                    1.68491598E-006     141.34  <-- SCF
     30  -3.19045420E+003                    3.57307166E-006     142.12  <-- SCF
     31  -3.19045425E+003                    1.61276991E-006     142.95  <-- SCF
     32  -3.19045435E+003                    2.98359952E-006     143.77  <-- SCF
     33  -3.19045441E+003                    1.94708943E-006     144.56  <-- SCF
     34  -3.19045447E+003                    1.85294305E-006     145.35  <-- SCF
     35  -3.19045452E+003                    1.57674333E-006     146.15  <-- SCF
     36  -3.19045457E+003                    1.45527061E-006     147.19  <-- SCF
     37  -3.19045459E+003                    8.17277751E-007     148.01  <-- SCF
     38  -3.19045462E+003                    9.84052022E-007     148.80  <-- SCF
------------------------------------------------------------------------ <-- SCF
 
Final energy =  -3190.454624930     eV
(energy not corrected for finite basis set)
 
(SEDC) Total Energy Correction : -0.749446E+00 eV

Dispersion corrected final energy* =  -3191.204070461     eV
 
 ************************************** Forces **************************************
[...]
 * H              18      0.00232             -0.00230              0.00098         *
 * H              19      0.00240              0.00029              0.00148         *
 * H              20     -0.00061             -0.00585              0.00079         *
 * C               1     -0.00621              0.00355              0.00491         *
 * C               2     -0.00690              0.00711             -0.00655         *
 * C               3     -0.00492              0.00245             -0.00370         *
 * C               4      0.00065             -0.00469             -0.00430         *
 * C               5      0.00617             -0.00444              0.01305         *
 * C               6     -0.00236             -0.02075              0.00948         *
 * C               7     -0.00022              0.01016             -0.00152         *
 * N               1      0.00360              0.00501              0.00800         *
 * O               1     -0.00221              0.00507             -0.01355         *
 * O               2      0.01332              0.00158             -0.01723         *
 * O               3      0.00618              0.00880              0.00873         *
 * Si              1     -0.00030             -0.00369             -0.00478         *
 *                                                                                  *
 ************************************************************************************
 
 Pseudo atomic calculation performed for H 1s1
 
 Converged in 13 iterations to a total energy of -12.4790 eV
 
 Pseudo atomic calculation performed for C 2s2 2p2
 
 Converged in 17 iterations to a total energy of -148.5208 eV
 
 Pseudo atomic calculation performed for N 2s2 2p3
 
 Converged in 21 iterations to a total energy of -268.1820 eV
 
 Pseudo atomic calculation performed for O 2s2 2p4
 
 Converged in 23 iterations to a total energy of -432.6536 eV
 
 Pseudo atomic calculation performed for Si 3s2 3p2
 
 Converged in 11 iterations to a total energy of -165.0683 eV
Charge spilling parameter for spin component 1 = 1.55%
 
            Orbital Populations       
     Ion    Atom   Orbital             Charge
  -------------------------------------------
      H     1      S                    0.688
      H     2      S                    0.690
      H     3      S                    0.734
      H     4      S                    0.732
      H     5      S                    0.687
      H     6      S                    0.686
      H     7      S                    0.728
      H     8      S                    0.734
      H     9      S                    0.724
      H    10      S                    0.720
      H    11      S                    0.464
      H    12      S                    0.453
      H    13      S                    0.463
      H    14      S                    0.505
      H    15      S                    0.510
      H    16      S                    0.725
      H    17      S                    0.730
      H    18      S                    0.701
      H    19      S                    0.724
      H    20      S                    0.728
      C     1      S                    1.298
      C     1      Px                   0.914
      C     1      Py                   1.187
      C     1      Pz                   1.000
      C     2      S                    1.297
      C     2      Px                   1.113
      C     2      Py                   1.160
      C     2      Pz                   0.952
      C     3      S                    1.309
      C     3      Px                   1.173
      C     3      Py                   1.158
      C     3      Pz                   0.769
      C     4      S                    1.288
      C     4      Px                   1.096
      C     4      Py                   1.153
      C     4      Pz                   0.979
      C     5      S                    1.406
      C     5      Px                   1.272
      C     5      Py                   1.218
      C     5      Pz                   1.067
      C     6      S                    1.305
      C     6      Px                   1.027
      C     6      Py                   1.168
      C     6      Pz                   1.011
      C     7      S                    1.400
      C     7      Px                   1.221
      C     7      Py                   1.172
      C     7      Pz                   1.003
      N     1      S                    1.589
      N     1      Px                   1.343
      N     1      Py                   1.402
      N     1      Pz                   1.304
      O     1      S                    1.853
      O     1      Px                   1.839
      O     1      Py                   1.851
      O     1      Pz                   1.556
      O     2      S                    1.857
      O     2      Px                   1.561
      O     2      Py                   1.872
      O     2      Pz                   1.822
      O     3      S                    1.856
      O     3      Px                   1.796
      O     3      Py                   1.596
      O     3      Pz                   1.850
     Si     1      S                    0.717
     Si     1      Px                   0.378
     Si     1      Py                   0.339
     Si     1      Pz                   0.380
  -------------------------------------------
                           Total:      74.000
  -------------------------------------------
 
     Atomic Populations (Mulliken)
     -----------------------------
Species          Ion     s       p       d       f      Total   Charge (e)
==========================================================================
  H               1     0.688   0.000   0.000   0.000   0.688     0.312
  H               2     0.690   0.000   0.000   0.000   0.690     0.310
  H               3     0.734   0.000   0.000   0.000   0.734     0.266
  H               4     0.732   0.000   0.000   0.000   0.732     0.268
  H               5     0.687   0.000   0.000   0.000   0.687     0.313
  H               6     0.686   0.000   0.000   0.000   0.686     0.314
  H               7     0.728   0.000   0.000   0.000   0.728     0.272
  H               8     0.734   0.000   0.000   0.000   0.734     0.266
  H               9     0.724   0.000   0.000   0.000   0.724     0.276
  H              10     0.720   0.000   0.000   0.000   0.720     0.280
  H              11     0.464   0.000   0.000   0.000   0.464     0.536
  H              12     0.453   0.000   0.000   0.000   0.453     0.547
  H              13     0.463   0.000   0.000   0.000   0.463     0.537
  H              14     0.505   0.000   0.000   0.000   0.505     0.495
  H              15     0.510   0.000   0.000   0.000   0.510     0.490
  H              16     0.725   0.000   0.000   0.000   0.725     0.275
  H              17     0.730   0.000   0.000   0.000   0.730     0.270
  H              18     0.701   0.000   0.000   0.000   0.701     0.299
  H              19     0.724   0.000   0.000   0.000   0.724     0.276
  H              20     0.728   0.000   0.000   0.000   0.728     0.272
  C               1     1.298   3.101   0.000   0.000   4.399    -0.399
  C               2     1.297   3.224   0.000   0.000   4.521    -0.521
  C               3     1.309   3.100   0.000   0.000   4.409    -0.409
  C               4     1.288   3.228   0.000   0.000   4.516    -0.516
  C               5     1.406   3.557   0.000   0.000   4.963    -0.963
  C               6     1.305   3.206   0.000   0.000   4.511    -0.511
  C               7     1.400   3.395   0.000   0.000   4.795    -0.795
  N               1     1.589   4.049   0.000   0.000   5.638    -0.638
  O               1     1.853   5.246   0.000   0.000   7.099    -1.099
  O               2     1.857   5.255   0.000   0.000   7.111    -1.111
  O               3     1.856   5.242   0.000   0.000   7.098    -1.098
  Si              1     0.717   1.097   0.000   0.000   1.813     2.187
==========================================================================
 
                 Bond                   Population      Length (A)
======================================================================
              H 12 -- O 1                    0.53        0.96833
              H 11 -- O 3                    0.53        0.96944
              H 13 -- O 2                    0.53        0.97018
              H 15 -- N 1                    0.67        1.02882
              H 14 -- N 1                    0.67        1.02936
              H 2  -- C 1                    0.86        1.09520
              H 18 -- C 7                    0.81        1.09686
              H 19 -- C 7                    0.81        1.09876
              H 5  -- C 3                    0.85        1.09916
              H 1  -- C 1                    0.85        1.09916
              H 6  -- C 3                    0.85        1.09995
              H 20 -- C 7                    0.81        1.10053
              H 7  -- C 4                    0.87        1.10078
              H 9  -- C 5                    0.82        1.10120
              H 17 -- C 6                    0.84        1.10167
              H 16 -- C 6                    0.84        1.10211
              H 10 -- C 5                    0.82        1.10257
              H 8  -- C 4                    0.85        1.10360
              H 3  -- C 2                    0.85        1.10389
              H 4  -- C 2                    0.85        1.10401
               C 1 -- N 1                    0.50        1.51080
               C 3 -- C 4                    0.71        1.51745
               C 3 -- N 1                    0.49        1.51886
               C 1 -- C 2                    0.71        1.51926
               C 6 -- C 7                    0.65        1.52776
               C 2 -- C 6                    0.68        1.53076
               C 4 -- C 5                    0.66        1.53599
               O 1 -- Si 1                   0.51        1.63982
              H 14 -- H 15                  -0.11        1.64784
               O 3 -- Si 1                   0.50        1.64909
               O 2 -- Si 1                   0.49        1.65245
              H 16 -- H 17                  -0.12        1.77023
              H 18 -- H 19                  -0.10        1.77097
              H 7  -- H 8                   -0.11        1.77427
              H 9  -- H 10                  -0.10        1.77442
              H 3  -- H 4                   -0.12        1.77504
              H 18 -- H 20                  -0.10        1.77747
              H 19 -- H 20                  -0.10        1.77860
              H 1  -- H 2                   -0.11        1.78324
              H 5  -- H 6                   -0.11        1.78893
               C 5 -- Si 1                   0.57        1.87716
              H 14 -- C 1                   -0.13        2.06607
              H 15 -- C 1                   -0.12        2.08087
              H 15 -- C 3                   -0.12        2.09113
              H 14 -- C 3                   -0.13        2.09865
              H 1  -- N 1                   -0.11        2.09984
              H 2  -- N 1                   -0.11        2.10646
              H 6  -- N 1                   -0.11        2.11104
              H 5  -- N 1                   -0.11        2.11216
              H 8  -- C 3                   -0.15        2.14425
              H 17 -- C 2                   -0.14        2.15481
              H 3  -- C 1                   -0.14        2.15668
              H 16 -- C 2                   -0.14        2.15869
              H 4  -- C 6                   -0.12        2.15918
              H 4  -- C 1                   -0.13        2.16179
              H 3  -- C 6                   -0.12        2.16434
              H 7  -- C 3                   -0.14        2.16488
              H 7  -- C 5                   -0.13        2.16768
              H 16 -- C 7                   -0.13        2.16854
              H 17 -- C 7                   -0.13        2.17051
              H 8  -- C 5                   -0.13        2.17081
              H 6  -- C 4                   -0.13        2.17247
              H 19 -- C 6                   -0.12        2.17710
              H 18 -- C 6                   -0.12        2.17711
              H 9  -- C 4                   -0.12        2.17961
              H 20 -- C 6                   -0.12        2.18321
              H 10 -- C 4                   -0.12        2.18322
              H 2  -- C 2                   -0.12        2.18353
              H 5  -- C 4                   -0.12        2.18588
              H 1  -- C 2                   -0.12        2.18912
              H 2  -- H 7                   -0.04        2.24647
              H 13 -- Si 1                  -0.14        2.25770
              H 11 -- Si 1                  -0.14        2.28729
              H 12 -- Si 1                  -0.13        2.29274
              H 6  -- H 14                  -0.04        2.31585
              H 2  -- H 15                  -0.04        2.37138
              H 3  -- H 14                  -0.01        2.39473
              H 1  -- H 5                   -0.02        2.40132
              H 8  -- H 15                  -0.01        2.41294
              H 1  -- H 14                  -0.03        2.43070
              H 6  -- H 15                  -0.02        2.44744
              H 10 -- Si 1                  -0.12        2.45651
              H 5  -- H 14                  -0.02        2.45811
              H 9  -- Si 1                  -0.11        2.46984
               C 2 -- N 1                   -0.14        2.48579
              H 16 -- H 18                  -0.03        2.49869
              H 4  -- H 15                  -0.01        2.49967
              H 4  -- H 17                  -0.03        2.50127
              H 3  -- H 16                  -0.03        2.50760
               C 4 -- N 1                   -0.14        2.50761
              H 6  -- H 8                   -0.03        2.50950
              H 1  -- H 3                   -0.04        2.51546
               C 3 -- C 5                   -0.15        2.51943
              H 8  -- H 9                   -0.03        2.52324
              H 17 -- H 20                  -0.03        2.52386
               C 1 -- C 6                   -0.15        2.52470
              H 5  -- H 7                   -0.03        2.52505
              H 17 -- H 18                  -0.03        2.52712
              H 7  -- H 10                  -0.03        2.53054
               C 2 -- C 7                   -0.16        2.53131
              H 16 -- H 19                  -0.03        2.53592
              H 2  -- H 4                   -0.03        2.53889
              H 3  -- H 19                  -0.01        2.55472
              H 6  -- H 9                   -0.01        2.55840
              H 2  -- H 17                  -0.01        2.56303
               C 1 -- C 3                   -0.13        2.56891
              H 4  -- H 20                  -0.01        2.57642
              H 14 -- C 2                   -0.04        2.59272
              H 1  -- H 16                  -0.01        2.60857
              H 5  -- H 10                  -0.01        2.63808
               O 1 -- O 2                   -0.08        2.64503
              H 7  -- O 2                   -0.00        2.65035
              H 15 -- C 4                   -0.04        2.65273
              H 13 -- O 1                   -0.01        2.68058
              H 8  -- N 1                   -0.03        2.70757
              H 1  -- C 3                   -0.04        2.70853
              H 15 -- C 2                   -0.03        2.70881
              H 4  -- N 1                   -0.03        2.71094
              H 5  -- C 1                   -0.04        2.72353
              H 3  -- N 1                   -0.03        2.72752
              H 17 -- C 1                   -0.04        2.74056
              H 16 -- C 1                   -0.04        2.74799
              H 4  -- C 7                   -0.04        2.75054
               O 2 -- O 3                   -0.07        2.75295
              H 3  -- C 7                   -0.04        2.76124
              H 9  -- C 3                   -0.04        2.76420
               O 1 -- O 3                   -0.07        2.76503
              H 6  -- C 5                   -0.04        2.77003
              H 7  -- N 1                   -0.01        2.77428
              H 10 -- C 3                   -0.04        2.77763
              H 19 -- C 2                   -0.04        2.78114
               C 5 -- O 3                   -0.11        2.78149
              H 2  -- C 6                   -0.03        2.80074
               C 5 -- O 2                   -0.11        2.81006
              H 20 -- C 2                   -0.04        2.81189
              H 2  -- C 3                   -0.02        2.81632
               C 4 -- Si 1                  -0.15        2.81948
              H 5  -- C 5                   -0.03        2.82837
              H 1  -- C 6                   -0.03        2.83563
              H 2  -- C 4                   -0.02        2.84269
              H 7  -- C 1                   -0.03        2.86358
              H 4  -- H 14                  -0.00        2.88148
              H 9  -- O 3                   -0.01        2.91063
              H 12 -- O 3                   -0.01        2.92234
               C 5 -- O 1                   -0.09        2.93463
              H 8  -- O 3                    0.00        2.93759
              H 2  -- H 14                   0.03        2.94331
              H 1  -- H 15                   0.03        2.95064
              H 5  -- H 15                   0.03        2.96297
              H 7  -- Si 1                  -0.06        2.97215
              H 8  -- Si 1                  -0.05        2.99351
              H 7  -- H 15                  -0.00        2.99692
======================================================================
 
 
     Hirshfeld Analysis
     ------------------
Species   Ion     Hirshfeld Charge (e)
======================================
  H        1                 0.07
  H        2                 0.07
  H        3                 0.05
  H        4                 0.05
  H        5                 0.07
  H        6                 0.07
  H        7                 0.04
  H        8                 0.05
  H        9                 0.05
  H       10                 0.05
  H       11                 0.17
  H       12                 0.18
  H       13                 0.17
  H       14                 0.18
  H       15                 0.18
  H       16                 0.05
  H       17                 0.04
  H       18                 0.05
  H       19                 0.05
  H       20                 0.05
  C        1                 0.01
  C        2                -0.06
  C        3                 0.01
  C        4                -0.06
  C        5                -0.14
  C        6                -0.05
  C        7                -0.10
  N        1                 0.04
  O        1                -0.28
  O        2                -0.29
  O        3                -0.28
  Si       1                 0.48
======================================
 

Writing analysis data to Conf_0011.castep_bin

Writing model to Conf_0011.check
 
 A BibTeX formatted list of references used in this run has been written to 
 Conf_0011.bib
 
Initialisation time =     25.22 s
Calculation time    =   1242.51 s
Finalisation time   =      1.25 s
Total time          =   1268.97 s
Peak Memory Use     = 7919528 kB
 
Overall parallel efficiency rating: Satisfactory (67%)
 
Data was distributed by:-
G-vector (48-way); efficiency rating: Satisfactory (67%)
High Water Mark     = 1915500 kB
