 Job started on host drago31040141.mgmt.cc.csic.es
 at Sun Mar 31 01:24:28 2024

 +-------------------------------------------------+
 |                                                 |
 |      CCC   AA    SSS  TTTTT  EEEEE  PPPP        |
 |     C     A  A  S       T    E      P   P       |
 |     C     AAAA   SS     T    EEE    PPPP        |
 |     C     A  A     S    T    E      P           |
 |      CCC  A  A  SSS     T    EEEEE  P           |
 |                                                 |
 +-------------------------------------------------+
 |                                                 |
 | Materials Studio CASTEP version 2024            |
 | Ab Initio Total Energy Program                  |
 |                                                 |
 | Authors:                                        |
 | M. Segall, M. Probert, C. Pickard, P. Hasnip,   |
 | S. Clark, K. Refson, J. R. Yates,               |
 | A. Bartok-Partay, M. Payne                      |
 |                                                 |
 | Contributors:                                   |
 | P. Lindan, P. Haynes, J. White, V. Milman,      |
 | N. Govind, M. Gibson, P. Tulip, V. Cocula,      |
 | B. Montanari, D. Quigley, M. Glover,            |
 | L. Bernasconi, A. Perlov, M. Plummer,           |
 | E. McNellis, J. Meyer, J. Gale, D. Jochym       |
 | J. Aarons, B. Walker, R. Gillen, D. Jones       |
 | T. Green, I. J. Bush, C. J. Armstrong,          |
 | E. J. Higgins, E. L. Brown, M. S. McFly,        |
 | J. Wilkins, B-C. Shih, P. J. P. Byrne,          |
 | R. J. Maurer, J. C. Womack, J. Dziedzic,        |
 | L. LeBlanc, T. K. Stenczel, J. Kermode,         |
 | S. Sturniolo, B. Shi, B. Durham, M. Evans,      |
 | M. J. Smith, A. Tamerus, Z. Hawkhead,           |
 | V. Ravindran, T. Hollins, S. A. Joyce,          |
 | R. T. Strong, A. M. Reilly                      |
 |                                                 |
 | Copyright (c) 2000 - 2023                       |
 |                                                 |
 | Please cite                                     |
 |                                                 |
 |     "First principles methods using CASTEP"     |
 |                                                 |
 |         Zeitschrift fuer Kristallographie       |
 |           220(5-6) pp. 567-570 (2005)           |
 |                                                 |
 | S. J. Clark, M. D. Segall, C. J. Pickard,       |
 | P. J. Hasnip, M. J. Probert, K. Refson,         |
 | M. C. Payne                                     |
 |                                                 |
 |       in all publications arising from          |
 |              your use of CASTEP                 |
 |                                                 |
 +-------------------------------------------------+
 |                                                 |
 |              http://www.castep.org              |
 |                                                 |
 +-------------------------------------------------+
 
 
 This version was compiled for x86_64-rhel7-intel19.0 on Oct 24 2023
 Code version:    a9f326b
 Intel(R) Math Kernel Library Version 2019.0.4 
 Fundamental constants values: CODATA 2018
 
License checkout of MS_castep successful
 
 
 Atomic calculation performed for H: 1s1
 
 Converged in 41 iterations to an ae energy of -12.488 eV
 
 Identity difference: 2.63E-05
 
   ============================================================                
   | Pseudopotential Report - Date of generation 31-03-2024   |                
   ------------------------------------------------------------                
   | Element: H Ionic charge:  1.00 Level of theory: PBE      |                
   | Atomic Solver: Koelling-Harmon                           |                
   |                                                          |                
   |               Reference Electronic Structure             |                
   |         Orbital         Occupation         Energy        |                
   |            1s              1.000           -0.239        |                
   |                                                          |                
   |                 Pseudopotential Definition               |                
   |        Beta     l      e      Rc     scheme   norm       |                
   |          1      0   -0.239   0.599     qc      0         |                
   |          2      0    0.250   0.599     qc      0         |                
   |         loc     1    0.000   0.599     pn      0         |                
   |                                                          |                
   | Augmentation charge Rinner = 0.421                       |                
   | No partial core correction                               |                
   ------------------------------------------------------------                
   | "1|0.6|9|10|15|10UU(qc=8)[]"                             |                
   ------------------------------------------------------------                
   |      Author: Chris J. Pickard, Cambridge University      |                
   ============================================================                
 
 Doing a self consistent calculation for the test configuration
 
 Atomic calculation performed for H: 1s1
 
 Converged in 41 iterations to an ae energy of -12.488 eV
 
 ---------------------------------------
 AE eigenvalue nl 10 =       -0.23860176
 ---------------------------------------
 PS eigenvalue nl 10 =       -0.23857601
 ---------------------------------------
 Maximum eigenvalue error:   2.57E-05
 
 Derived cutoff energies: C=   1 M=   6 F=  10 E=  20
 
 Checking for ghost states up to   1.51185 Ha
 
 No Ghost States Identified
 
 ***************************************
 
 Atomic calculation performed for C: 1s2 2s2 2p2
 
 Converged in 54 iterations to an ae energy of -1027.632 eV
 
 Identity difference: 2.37E-04
 
   ============================================================                
   | Pseudopotential Report - Date of generation 31-03-2024   |                
   ------------------------------------------------------------                
   | Element: C Ionic charge:  4.00 Level of theory: PBE      |                
   | Atomic Solver: Koelling-Harmon                           |                
   |                                                          |                
   |               Reference Electronic Structure             |                
   |         Orbital         Occupation         Energy        |                
   |            2s              2.000           -0.505        |                
   |            2p              2.000           -0.194        |                
   |                                                          |                
   |                 Pseudopotential Definition               |                
   |        Beta     l      e      Rc     scheme   norm       |                
   |          1      0   -0.505   1.395     qc      0         |                
   |          2      0    0.250   1.395     qc      0         |                
   |          3      1   -0.194   1.395     qc      0         |                
   |          4      1    0.250   1.395     qc      0         |                
   |         loc     2    0.000   1.395     pn      0         |                
   |                                                          |                
   | Augmentation charge Rinner = 0.983                       |                
   | Partial core correction Rc = 0.983                       |                
   ------------------------------------------------------------                
   | "2|1.4|11|12|14.7|20UU:21UU(qc=7)[]"                     |                
   ------------------------------------------------------------                
   |      Author: Chris J. Pickard, Cambridge University      |                
   ============================================================                
 
 Doing a self consistent calculation for the test configuration
 
 Atomic calculation performed for C: 1s2 2s2 2p2
 
 Converged in 54 iterations to an ae energy of -1027.632 eV
 
 ---------------------------------------
 AE eigenvalue nl 10 =      -10.04653081
 AE eigenvalue nl 20 =       -0.50533429
 AE eigenvalue nl 21 =       -0.19423807
 ---------------------------------------
 PS eigenvalue nl 20 =       -0.50531853
 PS eigenvalue nl 21 =       -0.19422214
 ---------------------------------------
 Maximum eigenvalue error:   1.59E-05
 
 Derived cutoff energies: C=   6 M=  10 F=  12 E=  16
 
 Checking for ghost states up to   1.47183 Ha
 
 No Ghost States Identified
 
 ***************************************
 
 Atomic calculation performed for N: 1s2 2s2 2p3
 
 Converged in 55 iterations to an ae energy of -1481.742 eV
 
 Identity difference: 2.27E-04
 
   ============================================================                
   | Pseudopotential Report - Date of generation 31-03-2024   |                
   ------------------------------------------------------------                
   | Element: N Ionic charge:  5.00 Level of theory: PBE      |                
   | Atomic Solver: Koelling-Harmon                           |                
   |                                                          |                
   |               Reference Electronic Structure             |                
   |         Orbital         Occupation         Energy        |                
   |            2s              2.000           -0.683        |                
   |            2p              3.000           -0.261        |                
   |                                                          |                
   |                 Pseudopotential Definition               |                
   |        Beta     l      e      Rc     scheme   norm       |                
   |          1      0   -0.683   1.100     qc      0         |                
   |          2      0    0.250   1.100     qc      0         |                
   |          3      1   -0.261   1.100     qc      0         |                
   |          4      1    0.250   1.100     qc      0         |                
   |         loc     2    0.000   1.100     pn      0         |                
   |                                                          |                
   | Augmentation charge Rinner = 0.769                       |                
   | Partial core correction Rc = 0.769                       |                
   ------------------------------------------------------------                
   | "2|1.1|12|16|19|20UU:21UU(qc=7)[]"                       |                
   ------------------------------------------------------------                
   |      Author: Chris J. Pickard, Cambridge University      |                
   ============================================================                
 
 Doing a self consistent calculation for the test configuration
 
 Atomic calculation performed for N: 1s2 2s2 2p3
 
 Converged in 55 iterations to an ae energy of -1481.742 eV
 
 ---------------------------------------
 AE eigenvalue nl 10 =      -14.13820921
 AE eigenvalue nl 20 =       -0.68290611
 AE eigenvalue nl 21 =       -0.26054797
 ---------------------------------------
 PS eigenvalue nl 20 =       -0.68291221
 PS eigenvalue nl 21 =       -0.26051708
 ---------------------------------------
 Maximum eigenvalue error:   3.09E-05
 
 Derived cutoff energies: C=  10 M=  15 F=  18 E=  23
 
 Checking for ghost states up to   1.48495 Ha
 
 No Ghost States Identified
 
 ***************************************
 
 Atomic calculation performed for O: 1s2 2s2 2p4
 
 Converged in 61 iterations to an ae energy of -2040.902 eV
 
 Identity difference: 4.10E-04
 
   ============================================================                
   | Pseudopotential Report - Date of generation 31-03-2024   |                
   ------------------------------------------------------------                
   | Element: O Ionic charge:  6.00 Level of theory: PBE      |                
   | Atomic Solver: Koelling-Harmon                           |                
   |                                                          |                
   |               Reference Electronic Structure             |                
   |         Orbital         Occupation         Energy        |                
   |            2s              2.000           -0.881        |                
   |            2p              4.000           -0.332        |                
   |                                                          |                
   |                 Pseudopotential Definition               |                
   |        Beta     l      e      Rc     scheme   norm       |                
   |          1      0   -0.881   1.100     qc      0         |                
   |          2      0    0.250   1.100     qc      0         |                
   |          3      1   -0.332   1.100     qc      0         |                
   |          4      1    0.250   1.100     qc      0         |                
   |         loc     2    0.000   1.100     pn      0         |                
   |                                                          |                
   | Augmentation charge Rinner = 0.769                       |                
   | Partial core correction Rc = 0.769                       |                
   ------------------------------------------------------------                
   | "2|1.1|14|18|21|20UU:21UU(qc=7)[]"                       |                
   ------------------------------------------------------------                
   |      Author: Chris J. Pickard, Cambridge University      |                
   ============================================================                
 
 Doing a self consistent calculation for the test configuration
 
 Atomic calculation performed for O: 1s2 2s2 2p4
 
 Converged in 61 iterations to an ae energy of -2040.902 eV
 
 ---------------------------------------
 AE eigenvalue nl 10 =      -18.91475256
 AE eigenvalue nl 20 =       -0.88057101
 AE eigenvalue nl 21 =       -0.33186952
 ---------------------------------------
 PS eigenvalue nl 20 =       -0.88059206
 PS eigenvalue nl 21 =       -0.33182157
 ---------------------------------------
 Maximum eigenvalue error:   4.80E-05
 
 Derived cutoff energies: C=  14 M=  17 F=  20 E=  22
 
 Checking for ghost states up to   1.49452 Ha
 
 No Ghost States Identified
 
 ***************************************
 
 Atomic calculation performed for Si: 1s2 2s2 2p6 3s2 3p2
 
 Converged in 54 iterations to an ae energy of -7886.857 eV
 
 Identity difference: 1.35E-04
 
   ============================================================                
   | Pseudopotential Report - Date of generation 31-03-2024   |                
   ------------------------------------------------------------                
   | Element: Si Ionic charge:  4.00 Level of theory: PBE     |                
   | Atomic Solver: Koelling-Harmon                           |                
   |                                                          |                
   |               Reference Electronic Structure             |                
   |         Orbital         Occupation         Energy        |                
   |            3s              2.000           -0.397        |                
   |            3p              2.000           -0.150        |                
   |                                                          |                
   |                 Pseudopotential Definition               |                
   |        Beta     l      e      Rc     scheme   norm       |                
   |          1      0   -0.397   1.797     qc      0         |                
   |          2      0    0.250   1.797     qc      0         |                
   |          3      1   -0.150   1.797     qc      0         |                
   |          4      1    0.250   1.797     qc      0         |                
   |          5      2    0.000   1.797     qc      0         |                
   |          6      2    0.250   1.797     qc      0         |                
   |         loc     3    0.000   1.797     pn      0         |                
   |                                                          |                
   | Augmentation charge Rinner = 1.255                       |                
   | Partial core correction Rc = 1.255                       |                
   ------------------------------------------------------------                
   | "3|1.8|3.6|5|7|30UU:31UU:32UU[]"                         |                
   ------------------------------------------------------------                
   |      Author: Chris J. Pickard, Cambridge University      |                
   ============================================================                
 
 Doing a self consistent calculation for the test configuration
 
 Atomic calculation performed for Si: 1s2 2s2 2p6 3s2 3p2
 
 Converged in 54 iterations to an ae energy of -7886.857 eV
 
 ---------------------------------------
 AE eigenvalue nl 10 =      -65.63192903
 AE eigenvalue nl 20 =       -5.12654326
 AE eigenvalue nl 21 =       -3.51173659
 AE eigenvalue nl 30 =       -0.39736430
 AE eigenvalue nl 31 =       -0.14998156
 ---------------------------------------
 PS eigenvalue nl 30 =       -0.39734922
 PS eigenvalue nl 31 =       -0.14996719
 ---------------------------------------
 Maximum eigenvalue error:   1.51E-05
 
 Derived cutoff energies: C=   1 M=   3 F=   6 E=   6
 
 Checking for ghost states up to   1.41161 Ha
 
 No Ghost States Identified
 
 ***************************************
 
 Pseudo atomic calculation performed for H 1s1
 
 Converged in 13 iterations to a total energy of -12.4790 eV
 
 Pseudo atomic calculation performed for C 2s2 2p2
 
 Converged in 17 iterations to a total energy of -148.5208 eV
 
 Pseudo atomic calculation performed for N 2s2 2p3
 
 Converged in 21 iterations to a total energy of -268.1820 eV
 
 Pseudo atomic calculation performed for O 2s2 2p4
 
 Converged in 23 iterations to a total energy of -432.6536 eV
 
 Pseudo atomic calculation performed for Si 3s2 3p2
 
 Converged in 11 iterations to a total energy of -165.0683 eV
 Calculation parallelised over 48 processes.
 Data is distributed by G-vector(48-way)

 ************************************ Title ************************************
 CASTEP calculation from BIOVIA Materials Studio 2024

 ***************************** General Parameters ******************************
  
 output verbosity                               : normal  (1)
 write checkpoint data to                       : Conf_0024.check
 type of calculation                            : geometry optimization
 stress calculation                             : off
 density difference calculation                 : off
 electron localisation func (ELF) calculation   : off
 Hirshfeld analysis                             : on
 polarisation (Berry phase) analysis            : off
 molecular orbital projected DOS                : off
 deltaSCF calculation                           : off
 unlimited duration calculation
 timing information                             : on
 memory usage estimate                          : on
 write extra output files                       : on
 write final potential to formatted file        : off
 write final density to formatted file          : off
 write BibTeX reference list                    : on
 write OTFG pseudopotential files               : on
 write electrostatic potential file             : on
 write bands file                               : on
 checkpoint writing                             : both castep_bin and check files
  
 output         length unit                     : A
 output           mass unit                     : amu
 output           time unit                     : ps
 output         charge unit                     : e
 output           spin unit                     : hbar/2
 output         energy unit                     : eV
 output          force unit                     : eV/A
 output       velocity unit                     : A/ps
 output       pressure unit                     : GPa
 output     inv_length unit                     : 1/A
 output      frequency unit                     : cm-1
 output force constant unit                     : eV/A**2
 output         volume unit                     : A**3
 output   IR intensity unit                     : (D/A)**2/amu
 output         dipole unit                     : D
 output         efield unit                     : eV/A/e
 output        entropy unit                     : J/mol/K
 output    efield chi2 unit                     : pm/V
  
 wavefunctions paging                           : none
 random number generator seed                   :   12431410
 data distribution                              : optimal for this architecture
 optimization strategy                          : balance speed and memory

 *********************** Exchange-Correlation Parameters ***********************
  
 using functional                               : Perdew Burke Ernzerhof
 relativistic treatment                         : Koelling-Harmon
 DFT+D: Semi-empirical dispersion correction    : on
 SEDC with                                      : G06 correction scheme

 ************************* Pseudopotential Parameters **************************
  
 pseudopotential representation                 : reciprocal space
 <beta|phi> representation                      : reciprocal space
 spin-orbit coupling                            : off

 **************************** Basis Set Parameters *****************************
  
 plane wave basis set cut-off                   :   600.0000   eV
 size of standard grid                          :     1.5000
 size of   fine   gmax                          :    18.8237   1/A
 largest prime factor in FFT                    :          5
 finite basis set correction                    : none

 **************************** Electronic Parameters ****************************
  
 number of  electrons                           :  74.00    
 net charge of system                           : +1.000    
 treating system as non-spin-polarized
 number of bands                                :         37

 ********************* Electronic Minimization Parameters **********************
  
 Method: Treating system as non-metallic,
         and number of  SD  steps               :          1
         and number of  CG  steps               :          4
  
 total energy / atom convergence tol.           : 0.2000E-05   eV
 eigen-energy convergence tolerance             : 0.1000E-05   eV
 max force / atom convergence tol.              : ignored
 convergence tolerance window                   :          3   cycles
 max. number of SCF cycles                      :        100
 periodic dipole correction                     : NONE

 ************************** Density Mixing Parameters **************************
  
 density-mixing scheme                          : Pulay
 max. length of mixing history                  :         20
 charge density mixing amplitude                : 0.5000    
 cut-off energy for mixing                      :  600.0       eV
 charge density mixing g-vector                 :  1.500       1/A

 *********************** Population Analysis Parameters ************************
  
 Population analysis with cutoff                :  3.000       A
 Population analysis output                     : summary and pdos components

 ********************** Geometry Optimization Parameters ***********************
  
 optimization method                            : LBFGS
 max. no. of LBFGS updates                      : unbounded
 preconditioned LBFGS is activated
 preconditioner type                            : EXP
     stabilization constant                     :     0.1000
     parameter A                                :     3.0000
     nearest neighbor distance                  : automatic
     cut-off distance                           : automatic
     parameter mu                               : automatic
 variable cell method                           : fixed basis quality
 max. number of steps                           :        300
 estimated bulk modulus                         :  500.0       GPa
 estimated <frequency>                          :  1668.       cm-1
 geom line minimiser                            : on
 with line minimiser tolerance                  :     0.4000
 total energy convergence tolerance             : 0.2000E-04   eV/atom
        max ionic |force| tolerance             : 0.5000E-01   eV/A
 max ionic |displacement| tolerance             : 0.2000E-02   A
   max |stress component| tolerance             : 0.1000       GPa
 convergence tolerance window                   :          2   steps
 backup results every                           :          5   steps
 write geom trajectory file                     : on

 *******************************************************************************
  
 
                           -------------------------------
                                      Unit Cell
                           -------------------------------
        Real Lattice(A)                      Reciprocal Lattice(1/A)
    13.4840002    -0.0000006    -0.0000006        0.465973392   0.000000000   0.000000000
     0.0000000    20.4006996    -0.0000009        0.000000013   0.307988717   0.000000000
     0.0000000     0.0000000    45.0000000        0.000000006   0.000000006   0.139626340
 
                       Lattice parameters(A)       Cell Angles
                    a =     13.484000          alpha =   90.000003
                    b =     20.400700          beta  =   90.000003
                    c =     45.000000          gamma =   90.000003
 
                       Current cell volume =         12378.736702       A**3
                                   density =             0.015698   AMU/A**3
                                           =             0.026068     g/cm^3
 
                           -------------------------------
                                     Cell Contents
                           -------------------------------
                         Total number of ions in cell =   32
                      Total number of species in cell =    5
                        Max number of any one species =   20
 
            xxxxxxxxxxxxxxxxxxxxxxxxxxxxxxxxxxxxxxxxxxxxxxxxxxxxxxxxxxxx
            x  Element    Atom        Fractional coordinates of atoms  x
            x            Number           u          v          w      x
            x----------------------------------------------------------x
            x  H            1         0.407956   0.394269   0.531349   x 
            x  H            2         0.498092   0.429975   0.507028   x 
            x  H            3         0.386631   0.503352   0.557044   x 
            x  H            4         0.474807   0.539341   0.532675   x 
            x  H            5         0.336591   0.364802   0.485143   x 
            x  H            6         0.245835   0.419385   0.470734   x 
            x  H            7         0.351449   0.462956   0.433453   x 
            x  H            8         0.362235   0.377199   0.433463   x 
            x  H            9         0.524100   0.416004   0.423855   x 
            x  H           10         0.530504   0.390510   0.461121   x 
            x  H           11         0.639017   0.541841   0.416136   x 
            x  H           12         0.686699   0.540424   0.480196   x 
            x  H           13         0.464589   0.600494   0.471595   x 
            x  H           14         0.285731   0.470236   0.512198   x 
            x  H           15         0.366830   0.506369   0.490398   x 
            x  H           16         0.519325   0.427550   0.576541   x 
            x  H           17         0.606609   0.464596   0.552366   x 
            x  H           18         0.619583   0.512068   0.603443   x 
            x  H           19         0.492689   0.535794   0.602327   x 
            x  H           20         0.580033   0.573360   0.577950   x 
            x  C            1         0.432520   0.440277   0.520795   x 
            x  C            2         0.454000   0.493229   0.543890   x 
            x  C            3         0.325746   0.414150   0.475646   x 
            x  C            4         0.382573   0.421562   0.446259   x 
            x  C            5         0.497265   0.427834   0.446454   x 
            x  C            6         0.538039   0.473906   0.565147   x 
            x  C            7         0.558697   0.526652   0.588478   x 
            x  N            1         0.347406   0.463128   0.499861   x 
            x  O            1         0.638044   0.506786   0.479693   x 
            x  O            2         0.458304   0.554005   0.472645   x 
            x  O            3         0.583827   0.555317   0.427702   x 
            x  Si           1         0.546898   0.512656   0.456084   x 
            xxxxxxxxxxxxxxxxxxxxxxxxxxxxxxxxxxxxxxxxxxxxxxxxxxxxxxxxxxxx
 
 
                         No user defined ionic velocities
 
                           -------------------------------
                                   Details of Species
                           -------------------------------
 
                               Mass of species in AMU
                                    H    1.0080000
                                    C   12.0109997
                                    N   14.0070000
                                    O   15.9989996
                                    Si   28.0849991
 
                          Electric Quadrupole Moment (Barn)
                                    H    0.0028600 Isotope  2
                                    C    0.0332700 Isotope 11
                                    N    0.0204400 Isotope 14
                                    O   -0.0255800 Isotope 17
                                    Si    1.0000000 No Isotope Defined
 
                          Files used for pseudopotentials:
                                    H 1|0.6|9|10|15|10UU(qc=8)[]
                                    C 2|1.4|11|12|14.7|20UU:21UU(qc=7)[]
                                    N 2|1.1|12|16|19|20UU:21UU(qc=7)[]
                                    O 2|1.1|14|18|21|20UU:21UU(qc=7)[]
                                    Si 3|1.8|3.6|5|7|30UU:31UU:32UU[]
 
                           -------------------------------
                              k-Points For BZ Sampling
                           -------------------------------
                       MP grid size for SCF calculation is  1  1  1
                            with an offset of   0.000  0.000  0.000
                       Number of kpoints used =             1
 
                           -------------------------------
                               Symmetry and Constraints
                           -------------------------------
 
                      Maximum deviation from symmetry =  0.00000         ANG
 
                      Number of symmetry operations   =           1
                      Number of nonlinear constraints =           3
         There are no ionic constraints specified or generated for this cell
                      Point group of crystal =     1: C1, 1, 1
                      Space group of crystal =     1: P1, P 1
 
             Set iprint > 1 for details on symmetry rotations/translations
 
                         Centre of mass is NOT constrained
 
                         Number of cell constraints= 6
                         Cell constraints are:  0 0 0 0 0 0
 
                         External pressure/stress (GPa)
                          0.00000   0.00000   0.00000
                                    0.00000   0.00000
                                              0.00000
 
                                --------------------
                                  DFT-D parameters
                                --------------------
 
                          Dispersion-correction scheme : G06       
                        Parameter s6 :   0.750000 (default)
                        Parameter d  :  20.000000 (default)
 
        xxxxxxxxxxxxxxxxxxxxxxxxxxxxxxxxxxxxxxxxxxxxxxxxxxxxxxxxxxxxxxxxxxxx
        x              Atomic DFT-D parameters                             x
        x  Species      C6            R0                                   x
        x               eV A^6        Ang                                  x
        x------------------------------------------------------------------x
        x  H             1.4510       1.0010   (default)                   x
        x  C            18.1375       1.4520   (default)                   x
        x  N            12.7481       1.3970   (default)                   x
        x  O             7.2550       1.3420   (default)                   x
        x  Si           95.6622       1.7160   (default)                   x
        xxxxxxxxxxxxxxxxxxxxxxxxxxxxxxxxxxxxxxxxxxxxxxxxxxxxxxxxxxxxxxxxxxxx
 
 
+---------------- MEMORY AND SCRATCH DISK ESTIMATES PER PROCESS --------------+
|                                                     Memory          Disk    |
| Baseline code, static data and system overhead     6533.0 MB         0.0 MB |
| BLAS internal memory storage                          0.0 MB         0.0 MB |
| Model and support data                              540.6 MB         0.0 MB |
| Electronic energy minimisation requirements          31.8 MB         0.0 MB |
| Force calculation requirements                        6.8 MB         0.0 MB |
|                                               ----------------------------- |
| Approx. total storage required per process         7105.3 MB         0.0 MB |
|                                                                             |
| Requirements will fluctuate during execution and may exceed these estimates |
+-----------------------------------------------------------------------------+
Calculating approximate eigenstates for fixed initial Hamiltonian
Cut-off for approx. calculation is  119.774 eV
Improving approx. states at cut-off of  300.000 eV
Resetting cut-off to  600.000 eV
Calculating total energy with cut-off of  600.000 eV.
------------------------------------------------------------------------ <-- SCF
SCF loop      Energy                           Energy gain       Timer   <-- SCF
                                               per atom          (sec)   <-- SCF
------------------------------------------------------------------------ <-- SCF
Initial  -2.93330985E+003                                         30.73  <-- SCF
      1  -3.20262403E+003                    8.41606824E+000      31.54  <-- SCF
      2  -3.20297415E+003                    1.09413952E-002      32.44  <-- SCF
      3  -3.19287396E+003                   -3.15631022E-001      33.47  <-- SCF
      4  -3.19173703E+003                   -3.55292256E-002      34.63  <-- SCF
      5  -3.19120404E+003                   -1.66557961E-002      35.64  <-- SCF
      6  -3.19112557E+003                   -2.45214449E-003      36.94  <-- SCF
      7  -3.19107177E+003                   -1.68137129E-003      37.94  <-- SCF
      8  -3.19106285E+003                   -2.78760571E-004      39.06  <-- SCF
      9  -3.19104799E+003                   -4.64281828E-004      40.07  <-- SCF
     10  -3.19102838E+003                   -6.12942196E-004      41.10  <-- SCF
     11  -3.19100469E+003                   -7.40334699E-004      42.21  <-- SCF
     12  -3.19093818E+003                   -2.07829740E-003      43.20  <-- SCF
     13  -3.19087274E+003                   -2.04489058E-003      44.22  <-- SCF
     14  -3.19079836E+003                   -2.32446844E-003      45.21  <-- SCF
     15  -3.19073308E+003                   -2.03987916E-003      46.20  <-- SCF
     16  -3.19068586E+003                   -1.47562429E-003      47.19  <-- SCF
     17  -3.19065071E+003                   -1.09851889E-003      48.18  <-- SCF
     18  -3.19062603E+003                   -7.71385863E-004      49.15  <-- SCF
     19  -3.19059579E+003                   -9.44998466E-004      50.14  <-- SCF
     20  -3.19056839E+003                   -8.56259155E-004      51.08  <-- SCF
     21  -3.19053919E+003                   -9.12401842E-004      52.06  <-- SCF
     22  -3.19052953E+003                   -3.01987948E-004      53.01  <-- SCF
     23  -3.19052584E+003                   -1.15062792E-004      53.99  <-- SCF
     24  -3.19053078E+003                    1.54324257E-004      54.95  <-- SCF
     25  -3.19053533E+003                    1.42112132E-004      55.82  <-- SCF
     26  -3.19053826E+003                    9.16293615E-005      56.66  <-- SCF
     27  -3.19054265E+003                    1.37203454E-004      57.51  <-- SCF
     28  -3.19054633E+003                    1.14757705E-004      58.32  <-- SCF
     29  -3.19054927E+003                    9.20371763E-005      59.12  <-- SCF
     30  -3.19055146E+003                    6.82712906E-005      59.91  <-- SCF
     31  -3.19055388E+003                    7.58740959E-005      60.70  <-- SCF
     32  -3.19055536E+003                    4.62036361E-005      61.49  <-- SCF
     33  -3.19055649E+003                    3.54154254E-005      62.28  <-- SCF
     34  -3.19055722E+003                    2.27934633E-005      63.07  <-- SCF
     35  -3.19055788E+003                    2.04334631E-005      63.86  <-- SCF
     36  -3.19055842E+003                    1.68558321E-005      64.64  <-- SCF
     37  -3.19055893E+003                    1.61195778E-005      65.43  <-- SCF
     38  -3.19055955E+003                    1.94207101E-005      66.22  <-- SCF
     39  -3.19055977E+003                    6.75116892E-006      67.01  <-- SCF
     40  -3.19056016E+003                    1.21977630E-005      67.80  <-- SCF
     41  -3.19056037E+003                    6.53756303E-006      68.59  <-- SCF
     42  -3.19056055E+003                    5.67369220E-006      69.39  <-- SCF
     43  -3.19056068E+003                    4.09407726E-006      70.18  <-- SCF
     44  -3.19056078E+003                    3.18481873E-006      70.97  <-- SCF
     45  -3.19056088E+003                    3.06654821E-006      71.79  <-- SCF
     46  -3.19056093E+003                    1.54810894E-006      72.60  <-- SCF
     47  -3.19056095E+003                    6.21704700E-007      73.39  <-- SCF
     48  -3.19056098E+003                    7.07580110E-007      74.18  <-- SCF
------------------------------------------------------------------------ <-- SCF
 
Final energy =  -3190.560975194     eV
(energy not corrected for finite basis set)
 
(SEDC) Total Energy Correction : -0.879914E+00 eV

Dispersion corrected final energy* =  -3191.440889644     eV

Writing analysis data to Conf_0024.castep_bin

Writing model to Conf_0024.check

WARNING - nonlinear constraints cannot be used with LBFGS algorithm
        - consider setting geom_method=DELOCALIZED
 
        => Turning nonlinear constraints OFF
 
+---------------- MEMORY AND SCRATCH DISK ESTIMATES PER PROCESS --------------+
|                                                     Memory          Disk    |
| Model and support data                              550.1 MB         0.0 MB |
| Electronic energy minimisation requirements          31.8 MB         0.0 MB |
| Geometry minimisation requirements                   34.8 MB         0.0 MB |
|                                               ----------------------------- |
| Approx. total storage required per process          616.7 MB         0.0 MB |
|                                                                             |
| Requirements will fluctuate during execution and may exceed these estimates |
+-----------------------------------------------------------------------------+
 
 
 ************************************** Forces **************************************
 *                                                                                  *
 *                           Cartesian components (eV/A)                            *
 * -------------------------------------------------------------------------------- *
 *                         x                    y                    z              *
 *                                                                                  *
 * H               1     -0.07105              0.14910             -0.18437         *
 * H               2     -0.19108              0.08274             -0.05639         *
 * H               3     -0.02011             -0.03772             -0.03290         *
 * H               4     -0.06212             -0.08780             -0.02008         *
 * H               5      0.06387              0.21304              0.04037         *
 * H               6      0.16906             -0.09042             -0.01825         *
 * H               7     -0.02673             -0.09717              0.11542         *
 * H               8      0.01459              0.17975              0.11954         *
 * H               9     -0.05180              0.11097              0.15991         *
 * H              10      0.02020              0.01103             -0.00047         *
 * H              11      0.72390             -0.26372             -0.59287         *
 * H              12      0.66540              0.67651              0.05190         *
 * H              13     -0.07281              1.03864             -0.00103         *
 * H              14     -0.45603              0.04172              0.44733         *
 * H              15      0.57298              1.08015             -0.39928         *
 * H              16     -0.00340              0.05989             -0.10025         *
 * H              17     -0.12128              0.00442             -0.05617         *
 * H              18     -0.09544             -0.00374             -0.10310         *
 * H              19      0.03562             -0.00830             -0.05846         *
 * H              20     -0.04263             -0.06140              0.02057         *
 * C               1     -0.36813              0.60684              0.08432         *
 * C               2      0.07611              0.04925             -0.01414         *
 * C               3     -0.45144             -0.37162             -0.33162         *
 * C               4      0.03142              0.15697             -0.29798         *
 * C               5     -0.13225              0.25512              0.47860         *
 * C               6      0.16365             -0.20642              0.06229         *
 * C               7     -0.02928              0.10887              0.07452         *
 * N               1      1.04258             -1.91253              0.48109         *
 * O               1     -0.19032             -1.20091              0.48709         *
 * O               2     -0.86146             -0.22607             -0.03020         *
 * O               3     -0.93964              0.67688              0.07793         *
 * Si              1      0.60761             -0.93404             -0.40334         *
 *                                                                                  *
 ************************************************************************************
 EXP precond LBFGS => estimated nearest neighbor distance :  1.624       A
 EXP precond LBFGS => estimated cutoff distance :  3.248       A
 doing test perturbation to get energy scale for EXP preconditioner
 
                           -------------------------------
                                     Cell Contents
                           -------------------------------
 
            xxxxxxxxxxxxxxxxxxxxxxxxxxxxxxxxxxxxxxxxxxxxxxxxxxxxxxxxxxxxxxxxx
            x  Element         Atom        Fractional coordinates of atoms  x
            x                 Number           u          v          w      x
            x---------------------------------------------------------------x
            x  H                 1         0.408918   0.395061   0.531457   x
            x  H                 2         0.499181   0.430745   0.507180   x
            x  H                 3         0.387557   0.504025   0.557104   x
            x  H                 4         0.475867   0.539941   0.532781   x
            x  H                 5         0.337423   0.365598   0.485332   x
            x  H                 6         0.246473   0.420163   0.470946   x
            x  H                 7         0.352311   0.463691   0.433719   x
            x  H                 8         0.363117   0.377995   0.433729   x
            x  H                 9         0.525218   0.416785   0.424133   x
            x  H                10         0.531628   0.391303   0.461348   x
            x  H                11         0.640213   0.542436   0.416423   x
            x  H                12         0.687903   0.541021   0.480393   x
            x  H                13         0.465636   0.600940   0.471806   x
            x  H                14         0.286458   0.470961   0.512341   x
            x  H                15         0.367721   0.507036   0.490578   x
            x  H                16         0.520437   0.428322   0.576564   x
            x  H                17         0.607790   0.465329   0.552435   x
            x  H                18         0.620771   0.512724   0.603414   x
            x  H                19         0.493771   0.536402   0.602300   x
            x  H                20         0.581198   0.573878   0.577971   x
            x  C                 1         0.433521   0.441038   0.520922   x
            x  C                 2         0.455032   0.493919   0.543975   x
            x  C                 3         0.326557   0.414933   0.475850   x
            x  C                 4         0.383491   0.422339   0.446507   x
            x  C                 5         0.498353   0.428606   0.446702   x
            x  C                 6         0.539170   0.474626   0.565192   x
            x  C                 7         0.559846   0.527279   0.588478   x
            x  N                 1         0.348260   0.463863   0.500026   x
            x  O                 1         0.639239   0.507452   0.479891   x
            x  O                 2         0.459342   0.554571   0.472854   x
            x  O                 3         0.584995   0.555880   0.427975   x
            x  Si                1         0.548037   0.513311   0.456318   x
            xxxxxxxxxxxxxxxxxxxxxxxxxxxxxxxxxxxxxxxxxxxxxxxxxxxxxxxxxxxxxxxxx
 
 
------------------------------------------------------------------------ <-- SCF
SCF loop      Energy                           Energy gain       Timer   <-- SCF
                                               per atom          (sec)   <-- SCF
------------------------------------------------------------------------ <-- SCF
Initial  -3.19084004E+003                                         76.17  <-- SCF
      1  -3.19054126E+003                   -9.33675204E-003      76.97  <-- SCF
      2  -3.19056081E+003                    6.10920666E-004      78.13  <-- SCF
      3  -3.19053768E+003                   -7.22823206E-004      79.13  <-- SCF
      4  -3.19055215E+003                    4.52101827E-004      80.14  <-- SCF
      5  -3.19055227E+003                    3.89295013E-006      80.90  <-- SCF
      6  -3.19055242E+003                    4.39518144E-006      81.66  <-- SCF
      7  -3.19055248E+003                    2.07462681E-006      82.42  <-- SCF
      8  -3.19055252E+003                    1.29388139E-006      83.18  <-- SCF
      9  -3.19055256E+003                    1.01585259E-006      83.94  <-- SCF
     10  -3.19055259E+003                    9.32805768E-007      84.71  <-- SCF
------------------------------------------------------------------------ <-- SCF
 
Final energy =  -3190.552585532     eV
(energy not corrected for finite basis set)
 
(SEDC) Total Energy Correction : -0.881205E+00 eV

Dispersion corrected final energy* =  -3191.433790987     eV
 
 ************************************** Forces **************************************
 *                                                                                  *
 *                           Cartesian components (eV/A)                            *
 * -------------------------------------------------------------------------------- *
 *                         x                    y                    z              *
 *                                                                                  *
 * H               1     -0.06501              0.12052             -0.16764         *
 * H               2     -0.22487              0.07340             -0.07194         *
 * H               3     -0.00109             -0.01183             -0.02343         *
 * H               4     -0.05077             -0.04776             -0.04838         *
 * H               5      0.05619              0.18073              0.04481         *
 * H               6      0.23802             -0.09173             -0.00883         *
 * H               7     -0.00095             -0.07494              0.09428         *
 * H               8      0.01979              0.16397              0.11161         *
 * H               9     -0.05490              0.12185              0.12915         *
 * H              10      0.03916             -0.00706              0.01918         *
 * H              11      0.73421             -0.26868             -0.59814         *
 * H              12      0.69746              0.70449              0.05721         *
 * H              13     -0.07427              1.17250              0.00451         *
 * H              14     -0.41103              0.03814              0.44185         *
 * H              15      0.57454              1.12683             -0.42217         *
 * H              16     -0.00421              0.01684             -0.08030         *
 * H              17     -0.13184             -0.00080             -0.07299         *
 * H              18     -0.09884              0.00418             -0.08349         *
 * H              19      0.05927              0.02500             -0.04577         *
 * H              20     -0.00480             -0.00314             -0.00897         *
 * C               1     -0.37557              0.58594              0.05860         *
 * C               2      0.05850              0.03980              0.03024         *
 * C               3     -0.50083             -0.37921             -0.34921         *
 * C               4      0.06857              0.14509             -0.30496         *
 * C               5     -0.19292              0.24343              0.49268         *
 * C               6      0.15773             -0.22825              0.02951         *
 * C               7     -0.04955              0.09817              0.13173         *
 * N               1      1.00453             -1.87074              0.50348         *
 * O               1     -0.22558             -1.25428              0.50886         *
 * O               2     -0.86888             -0.37219             -0.02459         *
 * O               3     -0.95399              0.71575              0.01931         *
 * Si              1      0.58197             -0.96599             -0.36618         *
 *                                                                                  *
 ************************************************************************************
 EXP precond LBFGS => estimated parameter mu :  1.147       eV/A**2
 LBFGS: finished iteration     0 with enthalpy= -3.19144089E+003 eV
  
 +-----------+-----------------+-----------------+------------+-----+ <-- LBFGS
 | Parameter |      value      |    tolerance    |    units   | OK? | <-- LBFGS
 +-----------+-----------------+-----------------+------------+-----+ <-- LBFGS
 |  dE/ion   |   0.000000E+000 |   2.000000E-005 |         eV | No  | <-- LBFGS
 |  |F|max   |   2.182254E+000 |   5.000000E-002 |       eV/A | No  | <-- LBFGS
 |  |dR|max  |   7.667620E-015 |   2.000000E-003 |          A | No  | <-- LBFGS
 +-----------+-----------------+-----------------+------------+-----+ <-- LBFGS
  

================================================================================
 Starting LBFGS iteration          1 ...
================================================================================
  
 +------------+-------------+-------------+-----------------+ <-- min LBFGS
 |    Step    |   lambda    |   F.delta'  |    enthalpy     | <-- min LBFGS
 +------------+-------------+-------------+-----------------+ <-- min LBFGS
 |  previous  |    0.000000 |    1.880054 |    -3191.440890 | <-- min LBFGS
 +------------+-------------+-------------+-----------------+ <-- min LBFGS
  

--------------------------------------------------------------------------------
 LBFGS: starting iteration         1 with trial guess (lambda=  0.757544)
--------------------------------------------------------------------------------
 
                           -------------------------------
                                     Cell Contents
                           -------------------------------
 
            xxxxxxxxxxxxxxxxxxxxxxxxxxxxxxxxxxxxxxxxxxxxxxxxxxxxxxxxxxxxxxxxx
            x  Element         Atom        Fractional coordinates of atoms  x
            x                 Number           u          v          w      x
            x---------------------------------------------------------------x
            x  H                 1         0.405538   0.395912   0.531075   x
            x  H                 2         0.495302   0.431093   0.507123   x
            x  H                 3         0.384651   0.503385   0.556817   x
            x  H                 4         0.472390   0.539384   0.532448   x
            x  H                 5         0.337205   0.364706   0.485604   x
            x  H                 6         0.247639   0.417425   0.471105   x
            x  H                 7         0.351697   0.462830   0.434372   x
            x  H                 8         0.362706   0.378634   0.434461   x
            x  H                 9         0.524049   0.417628   0.425527   x
            x  H                10         0.530941   0.391324   0.462426   x
            x  H                11         0.646985   0.541579   0.411695   x
            x  H                12         0.703286   0.536862   0.481820   x
            x  H                13         0.457913   0.610683   0.471038   x
            x  H                14         0.284898   0.468252   0.513815   x
            x  H                15         0.371224   0.509267   0.490256   x
            x  H                16         0.516900   0.427865   0.575846   x
            x  H                17         0.603195   0.464598   0.551789   x
            x  H                18         0.615609   0.512153   0.602612   x
            x  H                19         0.489900   0.535860   0.601637   x
            x  H                20         0.576568   0.573129   0.577459   x
            x  C                 1         0.429561   0.442415   0.521008   x
            x  C                 2         0.452255   0.493639   0.543693   x
            x  C                 3         0.324910   0.412056   0.475744   x
            x  C                 4         0.383067   0.422301   0.446694   x
            x  C                 5         0.497184   0.429244   0.448249   x
            x  C                 6         0.536067   0.473468   0.564733   x
            x  C                 7         0.555441   0.526942   0.587970   x
            x  N                 1         0.352335   0.457874   0.500974   x
            x  O                 1         0.647972   0.496556   0.481746   x
            x  O                 2         0.449904   0.557634   0.472138   x
            x  O                 3         0.581873   0.558256   0.424905   x
            x  Si                1         0.553460   0.507076   0.454887   x
            xxxxxxxxxxxxxxxxxxxxxxxxxxxxxxxxxxxxxxxxxxxxxxxxxxxxxxxxxxxxxxxxx
 
 
------------------------------------------------------------------------ <-- SCF
SCF loop      Energy                           Energy gain       Timer   <-- SCF
                                               per atom          (sec)   <-- SCF
------------------------------------------------------------------------ <-- SCF
Initial  -3.19825843E+003                                         86.04  <-- SCF
      1  -3.18572026E+003                   -3.91817689E-001      86.90  <-- SCF
      2  -3.18900991E+003                    1.02801368E-001      88.16  <-- SCF
      3  -3.18832301E+003                   -2.14654418E-002      89.32  <-- SCF
      4  -3.18840490E+003                    2.55892024E-003      90.39  <-- SCF
      5  -3.18844536E+003                    1.26455234E-003      91.40  <-- SCF
      6  -3.18844665E+003                    4.03261383E-005      92.57  <-- SCF
      7  -3.18844648E+003                   -5.51128833E-006      93.54  <-- SCF
      8  -3.18844642E+003                   -1.87121864E-006      94.43  <-- SCF
      9  -3.18844650E+003                    2.55361491E-006      95.37  <-- SCF
     10  -3.18844661E+003                    3.34915580E-006      96.27  <-- SCF
     11  -3.18844698E+003                    1.18130161E-005      97.04  <-- SCF
     12  -3.18844771E+003                    2.25846750E-005      97.92  <-- SCF
     13  -3.18844807E+003                    1.12382141E-005      98.68  <-- SCF
     14  -3.18844878E+003                    2.21756112E-005      99.45  <-- SCF
     15  -3.18844913E+003                    1.09128874E-005     100.23  <-- SCF
     16  -3.18844953E+003                    1.27650785E-005     101.00  <-- SCF
     17  -3.18844979E+003                    7.91574297E-006     101.80  <-- SCF
     18  -3.18845003E+003                    7.50533046E-006     102.59  <-- SCF
     19  -3.18845031E+003                    8.96023091E-006     103.37  <-- SCF
     20  -3.18845039E+003                    2.49269340E-006     104.15  <-- SCF
     21  -3.18845059E+003                    6.17123413E-006     104.93  <-- SCF
     22  -3.18845062E+003                    8.78263647E-007     105.71  <-- SCF
     23  -3.18845072E+003                    3.09362005E-006     106.50  <-- SCF
     24  -3.18845074E+003                    5.32439986E-007     107.28  <-- SCF
     25  -3.18845076E+003                    6.20119193E-007     108.07  <-- SCF
------------------------------------------------------------------------ <-- SCF
 
Final energy =  -3188.450755464     eV
(energy not corrected for finite basis set)
 
(SEDC) Total Energy Correction : -0.875695E+00 eV

Dispersion corrected final energy* =  -3189.326450069     eV
 
 ************************************** Forces **************************************
 *                                                                                  *
 *                           Cartesian components (eV/A)                            *
 * -------------------------------------------------------------------------------- *
 *                         x                    y                    z              *
 *                                                                                  *
 * H               1      0.33432             -0.12947              0.33546         *
 * H               2     -0.03533              0.06051              0.37889         *
 * H               3      0.00515              0.05605              0.03830         *
 * H               4      0.04153              0.17070             -0.06163         *
 * H               5      0.12043             -0.94250             -0.06810         *
 * H               6     -0.93198              0.22314             -0.05349         *
 * H               7     -0.20120              0.48458             -0.15931         *
 * H               8      0.13652             -0.43926             -0.50032         *
 * H               9     -0.00537             -0.07185              0.10495         *
 * H              10      0.00232             -0.00176              0.04959         *
 * H              11     -3.34754              1.24953              2.28667         *
 * H              12     -2.94024             -3.03131             -0.07792         *
 * H              13     -0.23754             -3.91185              0.07056         *
 * H              14      1.77563             -0.47635             -1.10753         *
 * H              15     -0.04937             -1.88226              0.73266         *
 * H              16     -0.12728             -0.39332              0.15366         *
 * H              17      0.23226             -0.06796             -0.17248         *
 * H              18      0.21285             -0.04540              0.24189         *
 * H              19     -0.22189              0.01582              0.10385         *
 * H              20      0.03347              0.19170             -0.11273         *
 * C               1      1.79748             -2.11526              0.30397         *
 * C               2     -0.17905              0.34616              0.39809         *
 * C               3      1.55220              0.43652              0.47274         *
 * C               4      0.02742             -0.04082              0.83660         *
 * C               5     -0.57409             -1.71690             -0.69657         *
 * C               6     -0.20446              0.57923              0.03610         *
 * C               7     -0.01165             -0.30292             -0.25161         *
 * N               1     -3.81081              4.88557             -1.57550         *
 * O               1      1.02158              3.27328             -1.90532         *
 * O               2      2.02006              1.85312             -1.08493         *
 * O               3      2.90524             -2.85202             -0.33712         *
 * Si              1      0.65936              4.59531              1.62057         *
 *                                                                                  *
 ************************************************************************************
  
 +------------+-------------+-------------+-----------------+ <-- min LBFGS
 |    Step    |   lambda    |   F.delta'  |    enthalpy     | <-- min LBFGS
 +------------+-------------+-------------+-----------------+ <-- min LBFGS
 |  previous  |    0.000000 |    1.880054 |    -3191.440890 | <-- min LBFGS
 | trial step |    0.757544 |   -5.481614 |    -3189.326450 | <-- min LBFGS
 +------------+-------------+-------------+-----------------+ <-- min LBFGS
  

--------------------------------------------------------------------------------
 LBFGS: improving iteration         1 with line minimization (lambda=  0.193465)
--------------------------------------------------------------------------------
 
                           -------------------------------
                                     Cell Contents
                           -------------------------------
 
            xxxxxxxxxxxxxxxxxxxxxxxxxxxxxxxxxxxxxxxxxxxxxxxxxxxxxxxxxxxxxxxxx
            x  Element         Atom        Fractional coordinates of atoms  x
            x                 Number           u          v          w      x
            x---------------------------------------------------------------x
            x  H                 1         0.407338   0.394689   0.531279   x
            x  H                 2         0.497379   0.430260   0.507052   x
            x  H                 3         0.386125   0.503361   0.556986   x
            x  H                 4         0.474190   0.539352   0.532617   x
            x  H                 5         0.336748   0.364778   0.485261   x
            x  H                 6         0.246296   0.418884   0.470829   x
            x  H                 7         0.351513   0.462924   0.433688   x
            x  H                 8         0.362356   0.377566   0.433718   x
            x  H                 9         0.524087   0.416418   0.424282   x
            x  H                10         0.530615   0.390718   0.461454   x
            x  H                11         0.641052   0.541775   0.415002   x
            x  H                12         0.690935   0.539514   0.480611   x
            x  H                13         0.462884   0.603096   0.471453   x
            x  H                14         0.285519   0.469729   0.512611   x
            x  H                15         0.367952   0.507109   0.490362   x
            x  H                16         0.518706   0.427631   0.576363   x
            x  H                17         0.605737   0.464597   0.552219   x
            x  H                18         0.618568   0.512090   0.603230   x
            x  H                19         0.491977   0.535811   0.602151   x
            x  H                20         0.579148   0.573301   0.577825   x
            x  C                 1         0.431764   0.440823   0.520849   x
            x  C                 2         0.453554   0.493333   0.543839   x
            x  C                 3         0.325532   0.413616   0.475671   x
            x  C                 4         0.382699   0.421751   0.446370   x
            x  C                 5         0.497244   0.428194   0.446913   x
            x  C                 6         0.537535   0.473794   0.565041   x
            x  C                 7         0.557865   0.526726   0.588348   x
            x  N                 1         0.348665   0.461787   0.500146   x
            x  O                 1         0.640579   0.504173   0.480217   x
            x  O                 2         0.456159   0.554932   0.472515   x
            x  O                 3         0.583328   0.556068   0.426988   x
            x  Si                1         0.548573   0.511231   0.455778   x
            xxxxxxxxxxxxxxxxxxxxxxxxxxxxxxxxxxxxxxxxxxxxxxxxxxxxxxxxxxxxxxxxx
 
 
------------------------------------------------------------------------ <-- SCF
SCF loop      Energy                           Energy gain       Timer   <-- SCF
                                               per atom          (sec)   <-- SCF
------------------------------------------------------------------------ <-- SCF
Initial  -3.21315328E+003                                        109.41  <-- SCF
      1  -3.18946478E+003                   -7.40265589E-001     110.20  <-- SCF
      2  -3.19095017E+003                    4.64185533E-002     111.29  <-- SCF
      3  -3.19057123E+003                   -1.18417356E-002     112.30  <-- SCF
      4  -3.19066271E+003                    2.85869773E-003     113.37  <-- SCF
      5  -3.19069551E+003                    1.02488028E-003     114.38  <-- SCF
      6  -3.19069581E+003                    9.30297448E-006     115.46  <-- SCF
      7  -3.19069539E+003                   -1.29899304E-005     116.41  <-- SCF
      8  -3.19069532E+003                   -2.11641116E-006     117.24  <-- SCF
      9  -3.19069538E+003                    1.67397859E-006     118.16  <-- SCF
     10  -3.19069571E+003                    1.05342441E-005     118.93  <-- SCF
     11  -3.19069620E+003                    1.52757708E-005     119.70  <-- SCF
     12  -3.19069697E+003                    2.40515354E-005     120.47  <-- SCF
     13  -3.19069737E+003                    1.25567010E-005     121.25  <-- SCF
     14  -3.19069791E+003                    1.67143220E-005     122.01  <-- SCF
     15  -3.19069825E+003                    1.05516802E-005     122.78  <-- SCF
     16  -3.19069858E+003                    1.05531004E-005     123.56  <-- SCF
     17  -3.19069882E+003                    7.37983765E-006     124.33  <-- SCF
     18  -3.19069901E+003                    6.06569498E-006     125.11  <-- SCF
     19  -3.19069921E+003                    6.17521285E-006     125.88  <-- SCF
     20  -3.19069938E+003                    5.11932513E-006     126.66  <-- SCF
     21  -3.19069958E+003                    6.25031140E-006     127.44  <-- SCF
     22  -3.19069968E+003                    3.23943737E-006     128.22  <-- SCF
     23  -3.19069979E+003                    3.43986284E-006     129.01  <-- SCF
     24  -3.19069984E+003                    1.48539011E-006     129.79  <-- SCF
     25  -3.19069988E+003                    1.34493410E-006     130.58  <-- SCF
     26  -3.19069993E+003                    1.40800425E-006     131.36  <-- SCF
     27  -3.19069995E+003                    9.09436312E-007     132.18  <-- SCF
     28  -3.19069998E+003                    7.66369664E-007     132.97  <-- SCF
------------------------------------------------------------------------ <-- SCF
 
Final energy =  -3190.699979148     eV
(energy not corrected for finite basis set)
 
(SEDC) Total Energy Correction : -0.878221E+00 eV

Dispersion corrected final energy* =  -3191.578200365     eV
 
 ************************************** Forces **************************************
 *                                                                                  *
 *                           Cartesian components (eV/A)                            *
 * -------------------------------------------------------------------------------- *
 *                         x                    y                    z              *
 *                                                                                  *
 * H               1      0.00883              0.09355             -0.07167         *
 * H               2     -0.16342              0.07873              0.05657         *
 * H               3     -0.01032             -0.01152             -0.01355         *
 * H               4     -0.03740             -0.02218             -0.02753         *
 * H               5      0.07493             -0.06384              0.01096         *
 * H               6     -0.09033             -0.00915             -0.02379         *
 * H               7     -0.06758              0.04535              0.03928         *
 * H               8      0.04923              0.03505             -0.03105         *
 * H               9     -0.03879              0.08406              0.16640         *
 * H              10      0.01302              0.01029              0.02218         *
 * H              11     -0.82406              0.29551              0.49885         *
 * H              12     -0.70733             -0.68918             -0.00974         *
 * H              13     -0.11230             -0.74950              0.00549         *
 * H              14      0.25148             -0.10142             -0.04771         *
 * H              15      0.25745             -0.14382              0.12174         *
 * H              16     -0.03115             -0.04980             -0.03906         *
 * H              17     -0.02558             -0.01222             -0.08423         *
 * H              18     -0.00873             -0.01092             -0.01790         *
 * H              19     -0.03267             -0.00092             -0.01734         *
 * H              20     -0.03259              0.00388             -0.01065         *
 * C               1      0.00863             -0.01023             -0.00598         *
 * C               2      0.00923              0.11882              0.08480         *
 * C               3      0.02573             -0.16467             -0.12549         *
 * C               4      0.02476              0.10866             -0.01093         *
 * C               5     -0.17780             -0.18012              0.16531         *
 * C               6      0.06787             -0.00558              0.05706         *
 * C               7     -0.02296              0.00428             -0.00714         *
 * N               1      0.01719              0.14913             -0.04165         *
 * O               1      0.34203              0.41925             -0.24525         *
 * O               2      0.39708              0.42026             -0.58493         *
 * O               3      0.49588             -0.46917             -0.21852         *
 * Si              1      0.33966              0.82741              0.40545         *
 *                                                                                  *
 ************************************************************************************
  
 +------------+-------------+-------------+-----------------+ <-- min LBFGS
 |    Step    |   lambda    |   F.delta'  |    enthalpy     | <-- min LBFGS
 +------------+-------------+-------------+-----------------+ <-- min LBFGS
 |  previous  |    0.000000 |    1.880054 |    -3191.440890 | <-- min LBFGS
 | trial step |    0.757544 |   -5.481614 |    -3189.326450 | <-- min LBFGS
 |  line step |    0.193465 |   -0.616993 |    -3191.578200 | <-- min LBFGS
 +------------+-------------+-------------+-----------------+ <-- min LBFGS
  
 LBFGS: finished iteration     1 with enthalpy= -3.19157820E+003 eV
  
 +-----------+-----------------+-----------------+------------+-----+ <-- LBFGS
 | Parameter |      value      |    tolerance    |    units   | OK? | <-- LBFGS
 +-----------+-----------------+-----------------+------------+-----+ <-- LBFGS
 |  dE/ion   |   4.290960E-003 |   2.000000E-005 |         eV | No  | <-- LBFGS
 |  |F|max   |   1.007601E+000 |   5.000000E-002 |       eV/A | No  | <-- LBFGS
 |  |dR|max  |   6.757175E-002 |   2.000000E-003 |          A | No  | <-- LBFGS
 +-----------+-----------------+-----------------+------------+-----+ <-- LBFGS
  

================================================================================
 Starting LBFGS iteration          2 ...
================================================================================
  
 +------------+-------------+-------------+-----------------+ <-- min LBFGS
 |    Step    |   lambda    |   F.delta'  |    enthalpy     | <-- min LBFGS
 +------------+-------------+-------------+-----------------+ <-- min LBFGS
 |  previous  |    0.000000 |    0.723584 |    -3191.578200 | <-- min LBFGS
 +------------+-------------+-------------+-----------------+ <-- min LBFGS
  

--------------------------------------------------------------------------------
 LBFGS: starting iteration         2 with trial guess (lambda=  1.000000)
--------------------------------------------------------------------------------
 
                           -------------------------------
                                     Cell Contents
                           -------------------------------
 
            xxxxxxxxxxxxxxxxxxxxxxxxxxxxxxxxxxxxxxxxxxxxxxxxxxxxxxxxxxxxxxxxx
            x  Element         Atom        Fractional coordinates of atoms  x
            x                 Number           u          v          w      x
            x---------------------------------------------------------------x
            x  H                 1         0.408164   0.396399   0.530624   x
            x  H                 2         0.496439   0.431664   0.506982   x
            x  H                 3         0.386526   0.503696   0.556405   x
            x  H                 4         0.474223   0.539560   0.531973   x
            x  H                 5         0.339936   0.364292   0.485404   x
            x  H                 6         0.249000   0.417630   0.470838   x
            x  H                 7         0.352229   0.463877   0.434672   x
            x  H                 8         0.363969   0.379239   0.434626   x
            x  H                 9         0.522807   0.418649   0.426824   x
            x  H                10         0.530354   0.392020   0.463242   x
            x  H                11         0.629982   0.543164   0.416323   x
            x  H                12         0.685587   0.532076   0.481283   x
            x  H                13         0.462112   0.602665   0.469774   x
            x  H                14         0.290307   0.468218   0.513026   x
            x  H                15         0.375290   0.508035   0.490034   x
            x  H                16         0.518021   0.427679   0.575331   x
            x  H                17         0.604555   0.464680   0.551145   x
            x  H                18         0.616551   0.512166   0.602091   x
            x  H                19         0.490444   0.535952   0.601103   x
            x  H                20         0.577264   0.573316   0.576893   x
            x  C                 1         0.432233   0.442372   0.520607   x
            x  C                 2         0.454106   0.494177   0.543378   x
            x  C                 3         0.327572   0.412042   0.475498   x
            x  C                 4         0.384067   0.423127   0.447038   x
            x  C                 5         0.496025   0.429445   0.449160   x
            x  C                 6         0.537496   0.473684   0.564280   x
            x  C                 7         0.556248   0.526989   0.587415   x
            x  N                 1         0.354961   0.459240   0.500364   x
            x  O                 1         0.639876   0.498532   0.480858   x
            x  O                 2         0.456869   0.556496   0.470305   x
            x  O                 3         0.576869   0.556232   0.427497   x
            x  Si                1         0.552543   0.512717   0.456677   x
            xxxxxxxxxxxxxxxxxxxxxxxxxxxxxxxxxxxxxxxxxxxxxxxxxxxxxxxxxxxxxxxxx
 
 
------------------------------------------------------------------------ <-- SCF
SCF loop      Energy                           Energy gain       Timer   <-- SCF
                                               per atom          (sec)   <-- SCF
------------------------------------------------------------------------ <-- SCF
Initial  -3.21303208E+003                                        134.33  <-- SCF
      1  -3.18960688E+003                   -7.32037374E-001     135.13  <-- SCF
      2  -3.19030059E+003                    2.16784374E-002     136.25  <-- SCF
      3  -3.19008017E+003                   -6.88823072E-003     137.25  <-- SCF
      4  -3.19017639E+003                    3.00687435E-003     138.25  <-- SCF
      5  -3.19018651E+003                    3.16164846E-004     139.46  <-- SCF
      6  -3.19018743E+003                    2.87555814E-005     140.45  <-- SCF
      7  -3.19018735E+003                   -2.45991392E-006     141.33  <-- SCF
      8  -3.19018706E+003                   -9.13214840E-006     142.23  <-- SCF
      9  -3.19018707E+003                    4.92599362E-007     143.01  <-- SCF
     10  -3.19018729E+003                    6.75241182E-006     143.77  <-- SCF
     11  -3.19018779E+003                    1.56866177E-005     144.56  <-- SCF
     12  -3.19018822E+003                    1.33866041E-005     145.34  <-- SCF
     13  -3.19018874E+003                    1.61758259E-005     146.10  <-- SCF
     14  -3.19018907E+003                    1.03812471E-005     146.90  <-- SCF
     15  -3.19018930E+003                    7.33685308E-006     147.69  <-- SCF
     16  -3.19018948E+003                    5.48348239E-006     148.46  <-- SCF
     17  -3.19018961E+003                    4.02516954E-006     149.23  <-- SCF
     18  -3.19018972E+003                    3.41980888E-006     150.01  <-- SCF
     19  -3.19018984E+003                    3.96313095E-006     150.78  <-- SCF
     20  -3.19018991E+003                    2.06744502E-006     151.56  <-- SCF
     21  -3.19018998E+003                    2.27446972E-006     152.34  <-- SCF
[...]
 * C               1      0.00174             -0.01978             -0.00050         *
 * C               2      0.00267              0.01019              0.00307         *
 * C               3      0.00561              0.00368             -0.00050         *
 * C               4      0.00271              0.00337             -0.00896         *
 * C               5      0.00912             -0.00129              0.00437         *
 * C               6     -0.00300             -0.00432              0.00649         *
 * C               7     -0.00126             -0.00056             -0.00548         *
 * N               1      0.00358              0.00410              0.01403         *
 * O               1     -0.01188             -0.00586             -0.00515         *
 * O               2      0.00691             -0.02286              0.00629         *
 * O               3     -0.00391              0.00172              0.01216         *
 * Si              1     -0.00232              0.01276             -0.00112         *
 *                                                                                  *
 ************************************************************************************
 
 Pseudo atomic calculation performed for H 1s1
 
 Converged in 13 iterations to a total energy of -12.4790 eV
 
 Pseudo atomic calculation performed for C 2s2 2p2
 
 Converged in 17 iterations to a total energy of -148.5208 eV
 
 Pseudo atomic calculation performed for N 2s2 2p3
 
 Converged in 21 iterations to a total energy of -268.1820 eV
 
 Pseudo atomic calculation performed for O 2s2 2p4
 
 Converged in 23 iterations to a total energy of -432.6536 eV
 
 Pseudo atomic calculation performed for Si 3s2 3p2
 
 Converged in 11 iterations to a total energy of -165.0683 eV
Charge spilling parameter for spin component 1 = 1.51%
 
            Orbital Populations       
     Ion    Atom   Orbital             Charge
  -------------------------------------------
      H     1      S                    0.697
      H     2      S                    0.720
      H     3      S                    0.738
      H     4      S                    0.737
      H     5      S                    0.694
      H     6      S                    0.682
      H     7      S                    0.717
      H     8      S                    0.680
      H     9      S                    0.689
      H    10      S                    0.725
      H    11      S                    0.451
      H    12      S                    0.463
      H    13      S                    0.450
      H    14      S                    0.515
      H    15      S                    0.563
      H    16      S                    0.727
      H    17      S                    0.734
      H    18      S                    0.704
      H    19      S                    0.725
      H    20      S                    0.738
      C     1      S                    1.286
      C     1      Px                   0.984
      C     1      Py                   1.131
      C     1      Pz                   0.978
      C     2      S                    1.292
      C     2      Px                   1.121
      C     2      Py                   1.060
      C     2      Pz                   1.038
      C     3      S                    1.304
      C     3      Px                   1.206
      C     3      Py                   1.005
      C     3      Pz                   0.898
      C     4      S                    1.305
      C     4      Px                   0.976
      C     4      Py                   1.235
      C     4      Pz                   1.020
      C     5      S                    1.401
      C     5      Px                   1.036
      C     5      Py                   1.275
      C     5      Pz                   1.259
      C     6      S                    1.303
      C     6      Px                   1.065
      C     6      Py                   1.107
      C     6      Pz                   1.033
      C     7      S                    1.399
      C     7      Px                   1.209
      C     7      Py                   1.078
      C     7      Pz                   1.105
      N     1      S                    1.577
      N     1      Px                   1.349
      N     1      Py                   1.373
      N     1      Pz                   1.309
      O     1      S                    1.856
      O     1      Px                   1.671
      O     1      Py                   1.764
      O     1      Pz                   1.797
      O     2      S                    1.844
      O     2      Px                   1.805
      O     2      Py                   1.555
      O     2      Pz                   1.885
      O     3      S                    1.852
      O     3      Px                   1.729
      O     3      Py                   1.842
      O     3      Pz                   1.665
     Si     1      S                    0.742
     Si     1      Px                   0.357
     Si     1      Py                   0.431
     Si     1      Pz                   0.337
  -------------------------------------------
                           Total:      74.000
  -------------------------------------------
 
     Atomic Populations (Mulliken)
     -----------------------------
Species          Ion     s       p       d       f      Total   Charge (e)
==========================================================================
  H               1     0.697   0.000   0.000   0.000   0.697     0.303
  H               2     0.720   0.000   0.000   0.000   0.720     0.280
  H               3     0.738   0.000   0.000   0.000   0.738     0.262
  H               4     0.737   0.000   0.000   0.000   0.737     0.263
  H               5     0.694   0.000   0.000   0.000   0.694     0.306
  H               6     0.682   0.000   0.000   0.000   0.682     0.318
  H               7     0.717   0.000   0.000   0.000   0.717     0.283
  H               8     0.680   0.000   0.000   0.000   0.680     0.320
  H               9     0.689   0.000   0.000   0.000   0.689     0.311
  H              10     0.725   0.000   0.000   0.000   0.725     0.275
  H              11     0.451   0.000   0.000   0.000   0.451     0.549
  H              12     0.463   0.000   0.000   0.000   0.463     0.537
  H              13     0.450   0.000   0.000   0.000   0.450     0.550
  H              14     0.515   0.000   0.000   0.000   0.515     0.485
  H              15     0.563   0.000   0.000   0.000   0.563     0.437
  H              16     0.727   0.000   0.000   0.000   0.727     0.273
  H              17     0.734   0.000   0.000   0.000   0.734     0.266
  H              18     0.704   0.000   0.000   0.000   0.704     0.296
  H              19     0.725   0.000   0.000   0.000   0.725     0.275
  H              20     0.738   0.000   0.000   0.000   0.738     0.262
  C               1     1.286   3.093   0.000   0.000   4.379    -0.379
  C               2     1.292   3.219   0.000   0.000   4.511    -0.511
  C               3     1.304   3.110   0.000   0.000   4.414    -0.414
  C               4     1.305   3.230   0.000   0.000   4.535    -0.535
  C               5     1.401   3.570   0.000   0.000   4.971    -0.971
  C               6     1.303   3.205   0.000   0.000   4.507    -0.507
  C               7     1.399   3.393   0.000   0.000   4.792    -0.792
  N               1     1.577   4.031   0.000   0.000   5.608    -0.608
  O               1     1.856   5.232   0.000   0.000   7.089    -1.089
  O               2     1.844   5.245   0.000   0.000   7.089    -1.089
  O               3     1.852   5.237   0.000   0.000   7.088    -1.088
  Si              1     0.742   1.125   0.000   0.000   1.866     2.134
==========================================================================
 
                 Bond                   Population      Length (A)
======================================================================
              H 11 -- O 3                    0.53        0.96791
              H 12 -- O 1                    0.53        0.96926
              H 13 -- O 2                    0.52        0.97089
              H 14 -- N 1                    0.68        1.02568
              H 15 -- N 1                    0.65        1.05436
              H 6  -- C 3                    0.84        1.09661
              H 2  -- C 1                    0.89        1.09741
              H 5  -- C 3                    0.86        1.09757
              H 18 -- C 7                    0.81        1.09758
              H 1  -- C 1                    0.86        1.09868
              H 19 -- C 7                    0.81        1.09913
              H 8  -- C 4                    0.84        1.10048
              H 20 -- C 7                    0.81        1.10068
              H 7  -- C 4                    0.85        1.10116
              H 4  -- C 2                    0.85        1.10121
              H 17 -- C 6                    0.84        1.10205
              H 10 -- C 5                    0.82        1.10213
              H 9  -- C 5                    0.82        1.10233
              H 16 -- C 6                    0.84        1.10233
              H 3  -- C 2                    0.85        1.10383
               C 1 -- N 1                    0.51        1.50853
               C 1 -- C 2                    0.72        1.51594
               C 3 -- N 1                    0.50        1.51855
               C 3 -- C 4                    0.70        1.52491
               C 6 -- C 7                    0.65        1.52747
               C 2 -- C 6                    0.68        1.53029
               C 4 -- C 5                    0.64        1.54362
               O 3 -- Si 1                   0.54        1.63632
               O 1 -- Si 1                   0.50        1.64623
               O 2 -- Si 1                   0.43        1.67953
              H 14 -- H 15                  -0.10        1.68182
              H 15 -- O 2                    0.10        1.72621
              H 9  -- H 10                  -0.10        1.74896
              H 7  -- H 8                   -0.11        1.76055
              H 16 -- H 17                  -0.12        1.76911
              H 18 -- H 19                  -0.10        1.77337
              H 3  -- H 4                   -0.12        1.77567
              H 19 -- H 20                  -0.11        1.77666
              H 18 -- H 20                  -0.10        1.77904
              H 5  -- H 6                   -0.11        1.78059
              H 1  -- H 2                   -0.11        1.78369
               C 5 -- Si 1                   0.65        1.87841
              H 14 -- C 1                   -0.13        2.06784
              H 15 -- C 1                   -0.12        2.07723
              H 8  -- C 3                   -0.14        2.09757
              H 14 -- C 3                   -0.13        2.09972
              H 2  -- N 1                   -0.11        2.10615
              H 5  -- N 1                   -0.12        2.10798
              H 1  -- N 1                   -0.11        2.10958
              H 6  -- N 1                   -0.11        2.11522
              H 15 -- C 3                   -0.11        2.11540
              H 4  -- C 1                   -0.13        2.15016
              H 17 -- C 2                   -0.14        2.15067
              H 9  -- C 4                   -0.12        2.15579
              H 6  -- C 4                   -0.13        2.15797
              H 7  -- C 3                   -0.13        2.15872
              H 16 -- C 2                   -0.13        2.15904
              H 3  -- C 1                   -0.14        2.16039
              H 4  -- C 6                   -0.12        2.16198
              H 3  -- C 6                   -0.12        2.16574
              H 16 -- C 7                   -0.13        2.17010
              H 2  -- C 2                   -0.12        2.17034
              H 8  -- C 5                   -0.12        2.17175
              H 17 -- C 7                   -0.13        2.17358
              H 19 -- C 6                   -0.12        2.17549
              H 5  -- C 4                   -0.13        2.17726
              H 1  -- C 2                   -0.12        2.17957
              H 20 -- C 6                   -0.12        2.18023
              H 18 -- C 6                   -0.12        2.18181
              H 7  -- C 5                   -0.13        2.18975
              H 10 -- C 4                   -0.11        2.19041
              H 6  -- H 14                  -0.07        2.20797
              H 2  -- H 10                  -0.03        2.25336
              H 12 -- Si 1                  -0.14        2.28498
              H 11 -- Si 1                  -0.12        2.29911
              H 13 -- Si 1                  -0.12        2.30576
              H 8  -- H 9                   -0.07        2.33701
              H 1  -- H 5                   -0.02        2.33913
              H 2  -- H 15                  -0.03        2.39365
              H 1  -- H 14                  -0.04        2.40087
              H 9  -- Si 1                  -0.13        2.42425
              H 6  -- H 8                   -0.03        2.42831
              H 5  -- H 8                   -0.04        2.42898
              H 4  -- H 15                  -0.01        2.43594
              H 6  -- H 7                   -0.04        2.43827
              H 3  -- H 14                  -0.00        2.47275
              H 13 -- H 15                  -0.01        2.47892
              H 10 -- Si 1                  -0.11        2.48546
              H 4  -- H 17                  -0.03        2.49011
               C 2 -- N 1                   -0.14        2.49232
              H 2  -- H 4                   -0.03        2.50557
               C 1 -- C 6                   -0.15        2.50997
              H 16 -- H 18                  -0.03        2.51323
              H 3  -- H 16                  -0.03        2.51893
              H 1  -- H 3                   -0.03        2.52596
              H 17 -- H 18                  -0.03        2.52950
              H 16 -- H 19                  -0.03        2.53073
               C 2 -- C 7                   -0.16        2.53097
              H 17 -- H 20                  -0.03        2.53208
              H 2  -- H 17                  -0.01        2.53277
              H 5  -- C 1                   -0.07        2.53288
              H 7  -- H 15                  -0.00        2.54606
              H 1  -- H 16                  -0.01        2.54951
               C 1 -- C 3                   -0.13        2.55169
               C 4 -- N 1                   -0.12        2.55354
              H 3  -- H 19                  -0.01        2.55380
              H 15 -- C 4                   -0.06        2.55934
              H 4  -- H 20                  -0.01        2.58134
               O 2 -- O 3                   -0.08        2.58697
               C 3 -- C 5                   -0.15        2.59798
              H 2  -- O 1                   -0.00        2.60716
              H 5  -- H 10                  -0.00        2.61100
              H 7  -- H 9                   -0.00        2.64175
              H 2  -- H 5                   -0.01        2.64270
              H 8  -- H 10                  -0.01        2.64408
              H 13 -- O 3                   -0.01        2.64600
              H 5  -- H 14                   0.01        2.64820
              H 15 -- C 2                   -0.04        2.65764
              H 14 -- C 2                   -0.04        2.66274
              H 6  -- H 15                   0.00        2.68568
              H 4  -- N 1                   -0.03        2.72049
               N 1 -- O 2                   -0.12        2.72190
              H 16 -- C 1                   -0.04        2.72322
              H 17 -- C 1                   -0.04        2.72476
              H 10 -- C 3                   -0.05        2.73712
              H 3  -- N 1                   -0.03        2.73857
               O 1 -- O 2                   -0.07        2.74116
              H 2  -- C 3                   -0.02        2.74496
              H 2  -- C 5                   -0.03        2.75128
              H 1  -- C 3                   -0.04        2.75259
              H 3  -- C 7                   -0.04        2.75450
               O 1 -- O 3                   -0.07        2.75990
              H 10 -- O 1                   -0.01        2.76087
              H 7  -- O 2                   -0.00        2.76350
              H 4  -- C 7                   -0.04        2.76934
              H 2  -- C 6                   -0.03        2.77648
              H 19 -- C 2                   -0.04        2.78674
              H 15 -- Si 1                  -0.04        2.78906
              H 1  -- C 6                   -0.03        2.79345
              H 20 -- C 2                   -0.04        2.79667
               C 5 -- O 1                   -0.11        2.80869
              H 4  -- O 2                   -0.00        2.81729
               C 5 -- O 2                   -0.10        2.84735
              H 7  -- N 1                   -0.02        2.86791
              H 5  -- C 5                   -0.03        2.89188
               C 4 -- Si 1                  -0.14        2.91229
              H 5  -- H 15                   0.02        2.92205
              H 2  -- Si 1                  -0.03        2.94249
              H 15 -- C 5                   -0.01        2.94543
              H 2  -- H 14                   0.04        2.94736
              H 7  -- Si 1                  -0.07        2.96731
              H 1  -- H 15                   0.03        2.96755
              H 12 -- O 3                   -0.01        2.97077
              H 9  -- O 3                   -0.01        2.98972
              H 4  -- H 14                  -0.00        2.99210
               C 5 -- O 3                   -0.08        2.99811
======================================================================
 
 
     Hirshfeld Analysis
     ------------------
Species   Ion     Hirshfeld Charge (e)
======================================
  H        1                 0.06
  H        2                 0.05
  H        3                 0.05
  H        4                 0.04
  H        5                 0.06
  H        6                 0.07
  H        7                 0.05
  H        8                 0.07
  H        9                 0.06
  H       10                 0.05
  H       11                 0.18
  H       12                 0.18
  H       13                 0.19
  H       14                 0.17
  H       15                 0.12
  H       16                 0.04
  H       17                 0.04
  H       18                 0.05
  H       19                 0.04
  H       20                 0.04
  C        1                 0.01
  C        2                -0.06
  C        3                 0.01
  C        4                -0.05
  C        5                -0.15
  C        6                -0.05
  C        7                -0.10
  N        1                 0.02
  O        1                -0.27
  O        2                -0.24
  O        3                -0.27
  Si       1                 0.49
======================================
 

Writing analysis data to Conf_0024.castep_bin

Writing model to Conf_0024.check
 
 A BibTeX formatted list of references used in this run has been written to 
 Conf_0024.bib
 
Initialisation time =     24.72 s
Calculation time    =    691.72 s
Finalisation time   =      1.20 s
Total time          =    717.64 s
Peak Memory Use     = 7905692 kB
 
Overall parallel efficiency rating: Satisfactory (66%)
 
Data was distributed by:-
G-vector (48-way); efficiency rating: Satisfactory (66%)
High Water Mark     = 1880484 kB
