 Job started on host drago31060177.mgmt.cc.csic.es
 at Sun Mar 31 00:50:16 2024

 +-------------------------------------------------+
 |                                                 |
 |      CCC   AA    SSS  TTTTT  EEEEE  PPPP        |
 |     C     A  A  S       T    E      P   P       |
 |     C     AAAA   SS     T    EEE    PPPP        |
 |     C     A  A     S    T    E      P           |
 |      CCC  A  A  SSS     T    EEEEE  P           |
 |                                                 |
 +-------------------------------------------------+
 |                                                 |
 | Materials Studio CASTEP version 2024            |
 | Ab Initio Total Energy Program                  |
 |                                                 |
 | Authors:                                        |
 | M. Segall, M. Probert, C. Pickard, P. Hasnip,   |
 | S. Clark, K. Refson, J. R. Yates,               |
 | A. Bartok-Partay, M. Payne                      |
 |                                                 |
 | Contributors:                                   |
 | P. Lindan, P. Haynes, J. White, V. Milman,      |
 | N. Govind, M. Gibson, P. Tulip, V. Cocula,      |
 | B. Montanari, D. Quigley, M. Glover,            |
 | L. Bernasconi, A. Perlov, M. Plummer,           |
 | E. McNellis, J. Meyer, J. Gale, D. Jochym       |
 | J. Aarons, B. Walker, R. Gillen, D. Jones       |
 | T. Green, I. J. Bush, C. J. Armstrong,          |
 | E. J. Higgins, E. L. Brown, M. S. McFly,        |
 | J. Wilkins, B-C. Shih, P. J. P. Byrne,          |
 | R. J. Maurer, J. C. Womack, J. Dziedzic,        |
 | L. LeBlanc, T. K. Stenczel, J. Kermode,         |
 | S. Sturniolo, B. Shi, B. Durham, M. Evans,      |
 | M. J. Smith, A. Tamerus, Z. Hawkhead,           |
 | V. Ravindran, T. Hollins, S. A. Joyce,          |
 | R. T. Strong, A. M. Reilly                      |
 |                                                 |
 | Copyright (c) 2000 - 2023                       |
 |                                                 |
 | Please cite                                     |
 |                                                 |
 |     "First principles methods using CASTEP"     |
 |                                                 |
 |         Zeitschrift fuer Kristallographie       |
 |           220(5-6) pp. 567-570 (2005)           |
 |                                                 |
 | S. J. Clark, M. D. Segall, C. J. Pickard,       |
 | P. J. Hasnip, M. J. Probert, K. Refson,         |
 | M. C. Payne                                     |
 |                                                 |
 |       in all publications arising from          |
 |              your use of CASTEP                 |
 |                                                 |
 +-------------------------------------------------+
 |                                                 |
 |              http://www.castep.org              |
 |                                                 |
 +-------------------------------------------------+
 
 
 This version was compiled for x86_64-rhel7-intel19.0 on Oct 24 2023
 Code version:    a9f326b
 Intel(R) Math Kernel Library Version 2019.0.4 
 Fundamental constants values: CODATA 2018
 
License checkout of MS_castep successful
 
 
 Atomic calculation performed for H: 1s1
 
 Converged in 41 iterations to an ae energy of -12.488 eV
 
 Identity difference: 2.63E-05
 
   ============================================================                
   | Pseudopotential Report - Date of generation 31-03-2024   |                
   ------------------------------------------------------------                
   | Element: H Ionic charge:  1.00 Level of theory: PBE      |                
   | Atomic Solver: Koelling-Harmon                           |                
   |                                                          |                
   |               Reference Electronic Structure             |                
   |         Orbital         Occupation         Energy        |                
   |            1s              1.000           -0.239        |                
   |                                                          |                
   |                 Pseudopotential Definition               |                
   |        Beta     l      e      Rc     scheme   norm       |                
   |          1      0   -0.239   0.599     qc      0         |                
   |          2      0    0.250   0.599     qc      0         |                
   |         loc     1    0.000   0.599     pn      0         |                
   |                                                          |                
   | Augmentation charge Rinner = 0.421                       |                
   | No partial core correction                               |                
   ------------------------------------------------------------                
   | "1|0.6|9|10|15|10UU(qc=8)[]"                             |                
   ------------------------------------------------------------                
   |      Author: Chris J. Pickard, Cambridge University      |                
   ============================================================                
 
 Doing a self consistent calculation for the test configuration
 
 Atomic calculation performed for H: 1s1
 
 Converged in 41 iterations to an ae energy of -12.488 eV
 
 ---------------------------------------
 AE eigenvalue nl 10 =       -0.23860176
 ---------------------------------------
 PS eigenvalue nl 10 =       -0.23857601
 ---------------------------------------
 Maximum eigenvalue error:   2.57E-05
 
 Derived cutoff energies: C=   1 M=   6 F=  10 E=  20
 
 Checking for ghost states up to   1.51185 Ha
 
 No Ghost States Identified
 
 ***************************************
 
 Atomic calculation performed for C: 1s2 2s2 2p2
 
 Converged in 54 iterations to an ae energy of -1027.632 eV
 
 Identity difference: 2.37E-04
 
   ============================================================                
   | Pseudopotential Report - Date of generation 31-03-2024   |                
   ------------------------------------------------------------                
   | Element: C Ionic charge:  4.00 Level of theory: PBE      |                
   | Atomic Solver: Koelling-Harmon                           |                
   |                                                          |                
   |               Reference Electronic Structure             |                
   |         Orbital         Occupation         Energy        |                
   |            2s              2.000           -0.505        |                
   |            2p              2.000           -0.194        |                
   |                                                          |                
   |                 Pseudopotential Definition               |                
   |        Beta     l      e      Rc     scheme   norm       |                
   |          1      0   -0.505   1.395     qc      0         |                
   |          2      0    0.250   1.395     qc      0         |                
   |          3      1   -0.194   1.395     qc      0         |                
   |          4      1    0.250   1.395     qc      0         |                
   |         loc     2    0.000   1.395     pn      0         |                
   |                                                          |                
   | Augmentation charge Rinner = 0.983                       |                
   | Partial core correction Rc = 0.983                       |                
   ------------------------------------------------------------                
   | "2|1.4|11|12|14.7|20UU:21UU(qc=7)[]"                     |                
   ------------------------------------------------------------                
   |      Author: Chris J. Pickard, Cambridge University      |                
   ============================================================                
 
 Doing a self consistent calculation for the test configuration
 
 Atomic calculation performed for C: 1s2 2s2 2p2
 
 Converged in 54 iterations to an ae energy of -1027.632 eV
 
 ---------------------------------------
 AE eigenvalue nl 10 =      -10.04653081
 AE eigenvalue nl 20 =       -0.50533429
 AE eigenvalue nl 21 =       -0.19423807
 ---------------------------------------
 PS eigenvalue nl 20 =       -0.50531853
 PS eigenvalue nl 21 =       -0.19422214
 ---------------------------------------
 Maximum eigenvalue error:   1.59E-05
 
 Derived cutoff energies: C=   6 M=  10 F=  12 E=  16
 
 Checking for ghost states up to   1.47183 Ha
 
 No Ghost States Identified
 
 ***************************************
 
 Atomic calculation performed for N: 1s2 2s2 2p3
 
 Converged in 55 iterations to an ae energy of -1481.742 eV
 
 Identity difference: 2.27E-04
 
   ============================================================                
   | Pseudopotential Report - Date of generation 31-03-2024   |                
   ------------------------------------------------------------                
   | Element: N Ionic charge:  5.00 Level of theory: PBE      |                
   | Atomic Solver: Koelling-Harmon                           |                
   |                                                          |                
   |               Reference Electronic Structure             |                
   |         Orbital         Occupation         Energy        |                
   |            2s              2.000           -0.683        |                
   |            2p              3.000           -0.261        |                
   |                                                          |                
   |                 Pseudopotential Definition               |                
   |        Beta     l      e      Rc     scheme   norm       |                
   |          1      0   -0.683   1.100     qc      0         |                
   |          2      0    0.250   1.100     qc      0         |                
   |          3      1   -0.261   1.100     qc      0         |                
   |          4      1    0.250   1.100     qc      0         |                
   |         loc     2    0.000   1.100     pn      0         |                
   |                                                          |                
   | Augmentation charge Rinner = 0.769                       |                
   | Partial core correction Rc = 0.769                       |                
   ------------------------------------------------------------                
   | "2|1.1|12|16|19|20UU:21UU(qc=7)[]"                       |                
   ------------------------------------------------------------                
   |      Author: Chris J. Pickard, Cambridge University      |                
   ============================================================                
 
 Doing a self consistent calculation for the test configuration
 
 Atomic calculation performed for N: 1s2 2s2 2p3
 
 Converged in 55 iterations to an ae energy of -1481.742 eV
 
 ---------------------------------------
 AE eigenvalue nl 10 =      -14.13820921
 AE eigenvalue nl 20 =       -0.68290611
 AE eigenvalue nl 21 =       -0.26054797
 ---------------------------------------
 PS eigenvalue nl 20 =       -0.68291221
 PS eigenvalue nl 21 =       -0.26051708
 ---------------------------------------
 Maximum eigenvalue error:   3.09E-05
 
 Derived cutoff energies: C=  10 M=  15 F=  18 E=  23
 
 Checking for ghost states up to   1.48495 Ha
 
 No Ghost States Identified
 
 ***************************************
 
 Atomic calculation performed for O: 1s2 2s2 2p4
 
 Converged in 61 iterations to an ae energy of -2040.902 eV
 
 Identity difference: 4.10E-04
 
   ============================================================                
   | Pseudopotential Report - Date of generation 31-03-2024   |                
   ------------------------------------------------------------                
   | Element: O Ionic charge:  6.00 Level of theory: PBE      |                
   | Atomic Solver: Koelling-Harmon                           |                
   |                                                          |                
   |               Reference Electronic Structure             |                
   |         Orbital         Occupation         Energy        |                
   |            2s              2.000           -0.881        |                
   |            2p              4.000           -0.332        |                
   |                                                          |                
   |                 Pseudopotential Definition               |                
   |        Beta     l      e      Rc     scheme   norm       |                
   |          1      0   -0.881   1.100     qc      0         |                
   |          2      0    0.250   1.100     qc      0         |                
   |          3      1   -0.332   1.100     qc      0         |                
   |          4      1    0.250   1.100     qc      0         |                
   |         loc     2    0.000   1.100     pn      0         |                
   |                                                          |                
   | Augmentation charge Rinner = 0.769                       |                
   | Partial core correction Rc = 0.769                       |                
   ------------------------------------------------------------                
   | "2|1.1|14|18|21|20UU:21UU(qc=7)[]"                       |                
   ------------------------------------------------------------                
   |      Author: Chris J. Pickard, Cambridge University      |                
   ============================================================                
 
 Doing a self consistent calculation for the test configuration
 
 Atomic calculation performed for O: 1s2 2s2 2p4
 
 Converged in 61 iterations to an ae energy of -2040.902 eV
 
 ---------------------------------------
 AE eigenvalue nl 10 =      -18.91475256
 AE eigenvalue nl 20 =       -0.88057101
 AE eigenvalue nl 21 =       -0.33186952
 ---------------------------------------
 PS eigenvalue nl 20 =       -0.88059206
 PS eigenvalue nl 21 =       -0.33182157
 ---------------------------------------
 Maximum eigenvalue error:   4.80E-05
 
 Derived cutoff energies: C=  14 M=  17 F=  20 E=  22
 
 Checking for ghost states up to   1.49452 Ha
 
 No Ghost States Identified
 
 ***************************************
 
 Atomic calculation performed for Si: 1s2 2s2 2p6 3s2 3p2
 
 Converged in 54 iterations to an ae energy of -7886.857 eV
 
 Identity difference: 1.35E-04
 
   ============================================================                
   | Pseudopotential Report - Date of generation 31-03-2024   |                
   ------------------------------------------------------------                
   | Element: Si Ionic charge:  4.00 Level of theory: PBE     |                
   | Atomic Solver: Koelling-Harmon                           |                
   |                                                          |                
   |               Reference Electronic Structure             |                
   |         Orbital         Occupation         Energy        |                
   |            3s              2.000           -0.397        |                
   |            3p              2.000           -0.150        |                
   |                                                          |                
   |                 Pseudopotential Definition               |                
   |        Beta     l      e      Rc     scheme   norm       |                
   |          1      0   -0.397   1.797     qc      0         |                
   |          2      0    0.250   1.797     qc      0         |                
   |          3      1   -0.150   1.797     qc      0         |                
   |          4      1    0.250   1.797     qc      0         |                
   |          5      2    0.000   1.797     qc      0         |                
   |          6      2    0.250   1.797     qc      0         |                
   |         loc     3    0.000   1.797     pn      0         |                
   |                                                          |                
   | Augmentation charge Rinner = 1.255                       |                
   | Partial core correction Rc = 1.255                       |                
   ------------------------------------------------------------                
   | "3|1.8|3.6|5|7|30UU:31UU:32UU[]"                         |                
   ------------------------------------------------------------                
   |      Author: Chris J. Pickard, Cambridge University      |                
   ============================================================                
 
 Doing a self consistent calculation for the test configuration
 
 Atomic calculation performed for Si: 1s2 2s2 2p6 3s2 3p2
 
 Converged in 54 iterations to an ae energy of -7886.857 eV
 
 ---------------------------------------
 AE eigenvalue nl 10 =      -65.63192903
 AE eigenvalue nl 20 =       -5.12654326
 AE eigenvalue nl 21 =       -3.51173659
 AE eigenvalue nl 30 =       -0.39736430
 AE eigenvalue nl 31 =       -0.14998156
 ---------------------------------------
 PS eigenvalue nl 30 =       -0.39734922
 PS eigenvalue nl 31 =       -0.14996719
 ---------------------------------------
 Maximum eigenvalue error:   1.51E-05
 
 Derived cutoff energies: C=   1 M=   3 F=   6 E=   6
 
 Checking for ghost states up to   1.41161 Ha
 
 No Ghost States Identified
 
 ***************************************
 
 Pseudo atomic calculation performed for H 1s1
 
 Converged in 13 iterations to a total energy of -12.4790 eV
 
 Pseudo atomic calculation performed for C 2s2 2p2
 
 Converged in 17 iterations to a total energy of -148.5208 eV
 
 Pseudo atomic calculation performed for N 2s2 2p3
 
 Converged in 21 iterations to a total energy of -268.1820 eV
 
 Pseudo atomic calculation performed for O 2s2 2p4
 
 Converged in 23 iterations to a total energy of -432.6536 eV
 
 Pseudo atomic calculation performed for Si 3s2 3p2
 
 Converged in 11 iterations to a total energy of -165.0683 eV
 Calculation parallelised over 48 processes.
 Data is distributed by G-vector(48-way)

 ************************************ Title ************************************
 CASTEP calculation from BIOVIA Materials Studio 2024

 ***************************** General Parameters ******************************
  
 output verbosity                               : normal  (1)
 write checkpoint data to                       : Conf_0005.check
 type of calculation                            : geometry optimization
 stress calculation                             : off
 density difference calculation                 : off
 electron localisation func (ELF) calculation   : off
 Hirshfeld analysis                             : on
 polarisation (Berry phase) analysis            : off
 molecular orbital projected DOS                : off
 deltaSCF calculation                           : off
 unlimited duration calculation
 timing information                             : on
 memory usage estimate                          : on
 write extra output files                       : on
 write final potential to formatted file        : off
 write final density to formatted file          : off
 write BibTeX reference list                    : on
 write OTFG pseudopotential files               : on
 write electrostatic potential file             : on
 write bands file                               : on
 checkpoint writing                             : both castep_bin and check files
  
 output         length unit                     : A
 output           mass unit                     : amu
 output           time unit                     : ps
 output         charge unit                     : e
 output           spin unit                     : hbar/2
 output         energy unit                     : eV
 output          force unit                     : eV/A
 output       velocity unit                     : A/ps
 output       pressure unit                     : GPa
 output     inv_length unit                     : 1/A
 output      frequency unit                     : cm-1
 output force constant unit                     : eV/A**2
 output         volume unit                     : A**3
 output   IR intensity unit                     : (D/A)**2/amu
 output         dipole unit                     : D
 output         efield unit                     : eV/A/e
 output        entropy unit                     : J/mol/K
 output    efield chi2 unit                     : pm/V
  
 wavefunctions paging                           : none
 random number generator seed                   :    5024882
 data distribution                              : optimal for this architecture
 optimization strategy                          : balance speed and memory

 *********************** Exchange-Correlation Parameters ***********************
  
 using functional                               : Perdew Burke Ernzerhof
 relativistic treatment                         : Koelling-Harmon
 DFT+D: Semi-empirical dispersion correction    : on
 SEDC with                                      : G06 correction scheme

 ************************* Pseudopotential Parameters **************************
  
 pseudopotential representation                 : reciprocal space
 <beta|phi> representation                      : reciprocal space
 spin-orbit coupling                            : off

 **************************** Basis Set Parameters *****************************
  
 plane wave basis set cut-off                   :   600.0000   eV
 size of standard grid                          :     1.5000
 size of   fine   gmax                          :    18.8237   1/A
 largest prime factor in FFT                    :          5
 finite basis set correction                    : none

 **************************** Electronic Parameters ****************************
  
 number of  electrons                           :  74.00    
 net charge of system                           : +1.000    
 treating system as non-spin-polarized
 number of bands                                :         37

 ********************* Electronic Minimization Parameters **********************
  
 Method: Treating system as non-metallic,
         and number of  SD  steps               :          1
         and number of  CG  steps               :          4
  
 total energy / atom convergence tol.           : 0.2000E-05   eV
 eigen-energy convergence tolerance             : 0.1000E-05   eV
 max force / atom convergence tol.              : ignored
 convergence tolerance window                   :          3   cycles
 max. number of SCF cycles                      :        100
 periodic dipole correction                     : NONE

 ************************** Density Mixing Parameters **************************
  
 density-mixing scheme                          : Pulay
 max. length of mixing history                  :         20
 charge density mixing amplitude                : 0.5000    
 cut-off energy for mixing                      :  600.0       eV
 charge density mixing g-vector                 :  1.500       1/A

 *********************** Population Analysis Parameters ************************
  
 Population analysis with cutoff                :  3.000       A
 Population analysis output                     : summary and pdos components

 ********************** Geometry Optimization Parameters ***********************
  
 optimization method                            : LBFGS
 max. no. of LBFGS updates                      : unbounded
 preconditioned LBFGS is activated
 preconditioner type                            : EXP
     stabilization constant                     :     0.1000
     parameter A                                :     3.0000
     nearest neighbor distance                  : automatic
     cut-off distance                           : automatic
     parameter mu                               : automatic
 variable cell method                           : fixed basis quality
 max. number of steps                           :        300
 estimated bulk modulus                         :  500.0       GPa
 estimated <frequency>                          :  1668.       cm-1
 geom line minimiser                            : on
 with line minimiser tolerance                  :     0.4000
 total energy convergence tolerance             : 0.2000E-04   eV/atom
        max ionic |force| tolerance             : 0.5000E-01   eV/A
 max ionic |displacement| tolerance             : 0.2000E-02   A
   max |stress component| tolerance             : 0.1000       GPa
 convergence tolerance window                   :          2   steps
 backup results every                           :          5   steps
 write geom trajectory file                     : on

 *******************************************************************************
  
 
                           -------------------------------
                                      Unit Cell
                           -------------------------------
        Real Lattice(A)                      Reciprocal Lattice(1/A)
    13.4840002    -0.0000006    -0.0000006        0.465973392   0.000000000   0.000000000
     0.0000000    20.4006996    -0.0000009        0.000000013   0.307988717   0.000000000
     0.0000000     0.0000000    45.0000000        0.000000006   0.000000006   0.139626340
 
                       Lattice parameters(A)       Cell Angles
                    a =     13.484000          alpha =   90.000003
                    b =     20.400700          beta  =   90.000003
                    c =     45.000000          gamma =   90.000003
 
                       Current cell volume =         12378.736702       A**3
                                   density =             0.015698   AMU/A**3
                                           =             0.026068     g/cm^3
 
                           -------------------------------
                                     Cell Contents
                           -------------------------------
                         Total number of ions in cell =   32
                      Total number of species in cell =    5
                        Max number of any one species =   20
 
            xxxxxxxxxxxxxxxxxxxxxxxxxxxxxxxxxxxxxxxxxxxxxxxxxxxxxxxxxxxx
            x  Element    Atom        Fractional coordinates of atoms  x
            x            Number           u          v          w      x
            x----------------------------------------------------------x
            x  H            1         0.468644   0.444939   0.545267   x 
            x  H            2         0.541444   0.518612   0.543592   x 
            x  H            3         0.382820   0.487473   0.591333   x 
            x  H            4         0.454315   0.560525   0.589650   x 
            x  H            5         0.341665   0.558749   0.491086   x 
            x  H            6         0.471978   0.547437   0.495078   x 
            x  H            7         0.321203   0.433027   0.496284   x 
            x  H            8         0.451618   0.426119   0.493092   x 
            x  H            9         0.312250   0.489238   0.446892   x 
            x  H           10         0.363456   0.410012   0.444440   x 
            x  H           11         0.545446   0.596581   0.430325   x 
            x  H           12         0.472352   0.457844   0.384300   x 
            x  H           13         0.646129   0.456487   0.427168   x 
            x  H           14         0.320326   0.512239   0.539706   x 
            x  H           15         0.385831   0.580128   0.539439   x 
            x  H           16         0.538411   0.421916   0.599161   x 
            x  H           17         0.609872   0.494651   0.597315   x 
            x  H           18         0.579296   0.462541   0.650177   x 
            x  H           19         0.449009   0.465566   0.644336   x 
            x  H           20         0.520844   0.538754   0.642471   x 
            x  C            1         0.470762   0.497314   0.551268   x 
            x  C            2         0.455471   0.507558   0.584595   x 
            x  C            3         0.399037   0.526267   0.500598   x 
            x  C            4         0.387787   0.457388   0.487229   x 
            x  C            5         0.378180   0.459951   0.452871   x 
            x  C            6         0.536339   0.475172   0.603614   x 
            x  C            7         0.520462   0.486118   0.636919   x 
            x  N            1         0.386157   0.532124   0.533833   x 
            x  O            1         0.474865   0.496491   0.396001   x 
            x  O            2         0.588503   0.450033   0.438920   x 
            x  O            3         0.511155   0.568160   0.443535   x 
            x  Si           1         0.489937   0.493556   0.431838   x 
            xxxxxxxxxxxxxxxxxxxxxxxxxxxxxxxxxxxxxxxxxxxxxxxxxxxxxxxxxxxx
 
 
                         No user defined ionic velocities
 
                           -------------------------------
                                   Details of Species
                           -------------------------------
 
                               Mass of species in AMU
                                    H    1.0080000
                                    C   12.0109997
                                    N   14.0070000
                                    O   15.9989996
                                    Si   28.0849991
 
                          Electric Quadrupole Moment (Barn)
                                    H    0.0028600 Isotope  2
                                    C    0.0332700 Isotope 11
                                    N    0.0204400 Isotope 14
                                    O   -0.0255800 Isotope 17
                                    Si    1.0000000 No Isotope Defined
 
                          Files used for pseudopotentials:
                                    H 1|0.6|9|10|15|10UU(qc=8)[]
                                    C 2|1.4|11|12|14.7|20UU:21UU(qc=7)[]
                                    N 2|1.1|12|16|19|20UU:21UU(qc=7)[]
                                    O 2|1.1|14|18|21|20UU:21UU(qc=7)[]
                                    Si 3|1.8|3.6|5|7|30UU:31UU:32UU[]
 
                           -------------------------------
                              k-Points For BZ Sampling
                           -------------------------------
                       MP grid size for SCF calculation is  1  1  1
                            with an offset of   0.000  0.000  0.000
                       Number of kpoints used =             1
 
                           -------------------------------
                               Symmetry and Constraints
                           -------------------------------
 
                      Maximum deviation from symmetry =  0.00000         ANG
 
                      Number of symmetry operations   =           1
                      Number of nonlinear constraints =           3
         There are no ionic constraints specified or generated for this cell
                      Point group of crystal =     1: C1, 1, 1
                      Space group of crystal =     1: P1, P 1
 
             Set iprint > 1 for details on symmetry rotations/translations
 
                         Centre of mass is NOT constrained
 
                         Number of cell constraints= 6
                         Cell constraints are:  0 0 0 0 0 0
 
                         External pressure/stress (GPa)
                          0.00000   0.00000   0.00000
                                    0.00000   0.00000
                                              0.00000
 
                                --------------------
                                  DFT-D parameters
                                --------------------
 
                          Dispersion-correction scheme : G06       
                        Parameter s6 :   0.750000 (default)
                        Parameter d  :  20.000000 (default)
 
        xxxxxxxxxxxxxxxxxxxxxxxxxxxxxxxxxxxxxxxxxxxxxxxxxxxxxxxxxxxxxxxxxxxx
        x              Atomic DFT-D parameters                             x
        x  Species      C6            R0                                   x
        x               eV A^6        Ang                                  x
        x------------------------------------------------------------------x
        x  H             1.4510       1.0010   (default)                   x
        x  C            18.1375       1.4520   (default)                   x
        x  N            12.7481       1.3970   (default)                   x
        x  O             7.2550       1.3420   (default)                   x
        x  Si           95.6622       1.7160   (default)                   x
        xxxxxxxxxxxxxxxxxxxxxxxxxxxxxxxxxxxxxxxxxxxxxxxxxxxxxxxxxxxxxxxxxxxx
 
 
+---------------- MEMORY AND SCRATCH DISK ESTIMATES PER PROCESS --------------+
|                                                     Memory          Disk    |
| Baseline code, static data and system overhead     6531.0 MB         0.0 MB |
| BLAS internal memory storage                          0.0 MB         0.0 MB |
| Model and support data                              540.6 MB         0.0 MB |
| Electronic energy minimisation requirements          31.8 MB         0.0 MB |
| Force calculation requirements                        6.8 MB         0.0 MB |
|                                               ----------------------------- |
| Approx. total storage required per process         7103.3 MB         0.0 MB |
|                                                                             |
| Requirements will fluctuate during execution and may exceed these estimates |
+-----------------------------------------------------------------------------+
Calculating approximate eigenstates for fixed initial Hamiltonian
Cut-off for approx. calculation is  119.774 eV
Improving approx. states at cut-off of  300.000 eV
Resetting cut-off to  600.000 eV
Calculating total energy with cut-off of  600.000 eV.
------------------------------------------------------------------------ <-- SCF
SCF loop      Energy                           Energy gain       Timer   <-- SCF
                                               per atom          (sec)   <-- SCF
------------------------------------------------------------------------ <-- SCF
Initial  -2.95610357E+003                                         32.42  <-- SCF
      1  -3.20344418E+003                    7.72939403E+000      33.28  <-- SCF
      2  -3.20384749E+003                    1.26032333E-002      34.19  <-- SCF
      3  -3.19289790E+003                   -3.42174705E-001      35.23  <-- SCF
      4  -3.19170194E+003                   -3.73735449E-002      36.42  <-- SCF
      5  -3.19108307E+003                   -1.93397469E-002      37.45  <-- SCF
      6  -3.19099237E+003                   -2.83434069E-003      38.81  <-- SCF
      7  -3.19093223E+003                   -1.87953237E-003      39.85  <-- SCF
      8  -3.19092395E+003                   -2.58704862E-004      40.99  <-- SCF
      9  -3.19091324E+003                   -3.34588669E-004      42.01  <-- SCF
     10  -3.19089887E+003                   -4.49124260E-004      43.07  <-- SCF
     11  -3.19087344E+003                   -7.94787434E-004      44.16  <-- SCF
     12  -3.19081494E+003                   -1.82795364E-003      45.19  <-- SCF
     13  -3.19074960E+003                   -2.04186381E-003      46.20  <-- SCF
     14  -3.19068407E+003                   -2.04788227E-003      47.20  <-- SCF
     15  -3.19062833E+003                   -1.74197196E-003      48.20  <-- SCF
     16  -3.19059089E+003                   -1.17000848E-003      49.21  <-- SCF
     17  -3.19055798E+003                   -1.02843728E-003      50.22  <-- SCF
     18  -3.19053173E+003                   -8.20219513E-004      51.23  <-- SCF
     19  -3.19050758E+003                   -7.54748452E-004      52.20  <-- SCF
     20  -3.19048049E+003                   -8.46536004E-004      53.19  <-- SCF
     21  -3.19045180E+003                   -8.96410359E-004      54.21  <-- SCF
     22  -3.19044155E+003                   -3.20421678E-004      55.15  <-- SCF
     23  -3.19043769E+003                   -1.20564251E-004      56.16  <-- SCF
     24  -3.19044201E+003                    1.34911809E-004      57.14  <-- SCF
     25  -3.19044539E+003                    1.05814725E-004      57.98  <-- SCF
     26  -3.19045057E+003                    1.61709444E-004      58.83  <-- SCF
     27  -3.19045554E+003                    1.55311520E-004      59.71  <-- SCF
     28  -3.19045787E+003                    7.27928254E-005      60.53  <-- SCF
     29  -3.19046096E+003                    9.66173985E-005      61.34  <-- SCF
     30  -3.19046370E+003                    8.55333349E-005      62.16  <-- SCF
     31  -3.19046558E+003                    5.86657971E-005      62.97  <-- SCF
     32  -3.19046753E+003                    6.09588174E-005      63.78  <-- SCF
     33  -3.19046881E+003                    4.01374605E-005      64.58  <-- SCF
     34  -3.19046970E+003                    2.77005817E-005      65.39  <-- SCF
     35  -3.19047017E+003                    1.47742342E-005      66.20  <-- SCF
     36  -3.19047094E+003                    2.42316928E-005      67.02  <-- SCF
     37  -3.19047126E+003                    9.75942671E-006      67.83  <-- SCF
     38  -3.19047188E+003                    1.96038863E-005      68.66  <-- SCF
     39  -3.19047211E+003                    7.14919151E-006      69.49  <-- SCF
     40  -3.19047243E+003                    9.79159981E-006      70.31  <-- SCF
     41  -3.19047264E+003                    6.75718922E-006      71.12  <-- SCF
     42  -3.19047279E+003                    4.57168558E-006      71.93  <-- SCF
     43  -3.19047293E+003                    4.52668362E-006      72.74  <-- SCF
     44  -3.19047305E+003                    3.63652681E-006      73.55  <-- SCF
     45  -3.19047312E+003                    2.24098523E-006      74.36  <-- SCF
     46  -3.19047314E+003                    6.20750235E-007      75.18  <-- SCF
     47  -3.19047319E+003                    1.37022965E-006      75.99  <-- SCF
------------------------------------------------------------------------ <-- SCF
 
Final energy =  -3190.473185645     eV
(energy not corrected for finite basis set)
 
(SEDC) Total Energy Correction : -0.763454E+00 eV

Dispersion corrected final energy* =  -3191.236640116     eV

Writing analysis data to Conf_0005.castep_bin

Writing model to Conf_0005.check

WARNING - nonlinear constraints cannot be used with LBFGS algorithm
        - consider setting geom_method=DELOCALIZED
 
        => Turning nonlinear constraints OFF
 
+---------------- MEMORY AND SCRATCH DISK ESTIMATES PER PROCESS --------------+
|                                                     Memory          Disk    |
| Model and support data                              550.1 MB         0.0 MB |
| Electronic energy minimisation requirements          31.8 MB         0.0 MB |
| Geometry minimisation requirements                   34.8 MB         0.0 MB |
|                                               ----------------------------- |
| Approx. total storage required per process          616.7 MB         0.0 MB |
|                                                                             |
| Requirements will fluctuate during execution and may exceed these estimates |
+-----------------------------------------------------------------------------+
 
 
 ************************************** Forces **************************************
 *                                                                                  *
 *                           Cartesian components (eV/A)                            *
 * -------------------------------------------------------------------------------- *
 *                         x                    y                    z              *
 *                                                                                  *
 * H               1     -0.11579              0.22181             -0.10019         *
 * H               2     -0.27327             -0.00757             -0.06998         *
 * H               3     -0.00538             -0.00899             -0.01960         *
 * H               4     -0.03889              0.02572             -0.05659         *
 * H               5      0.13522             -0.07944             -0.01430         *
 * H               6     -0.13853             -0.01313              0.10220         *
 * H               7     -0.02221              0.10780              0.09162         *
 * H               8     -0.05929              0.14017              0.02182         *
 * H               9      0.13335              0.05044             -0.03920         *
 * H              10      0.08250              0.12342              0.11132         *
 * H              11      0.46975              0.67932             -0.61082         *
 * H              12     -0.01071             -0.78324             -0.59324         *
 * H              13      0.79462              0.12095             -0.54363         *
 * H              14     -0.63871             -0.25395              0.35582         *
 * H              15     -0.02766              0.60999              0.25099         *
 * H              16     -0.03909              0.07822             -0.04112         *
 * H              17     -0.10596             -0.03631             -0.08894         *
 * H              18     -0.12121              0.02158             -0.16725         *
 * H              19      0.06489              0.05412             -0.01683         *
 * H              20      0.00834             -0.04596             -0.05859         *
 * C               1     -0.47499              0.23267              0.35715         *
 * C               2      0.01457             -0.01276              0.02616         *
 * C               3     -0.21209              0.36469             -0.77828         *
 * C               4      0.07941             -0.17099              0.20561         *
 * C               5      0.40455              0.22733              0.09140         *
 * C               6      0.22346             -0.15614              0.00331         *
 * C               7     -0.07784              0.05850              0.12758         *
 * N               1      1.83133             -1.39938             -0.49128         *
 * O               1     -0.36028              0.97726              0.06777         *
 * O               2     -0.60238             -0.92596              1.11125         *
 * O               3     -0.78363              0.04772              0.79330         *
 * Si              1     -0.13406             -0.24791             -0.02745         *
 *                                                                                  *
 ************************************************************************************
 EXP precond LBFGS => estimated nearest neighbor distance :  1.627       A
 EXP precond LBFGS => estimated cutoff distance :  3.253       A
 doing test perturbation to get energy scale for EXP preconditioner
 
                           -------------------------------
                                     Cell Contents
                           -------------------------------
 
            xxxxxxxxxxxxxxxxxxxxxxxxxxxxxxxxxxxxxxxxxxxxxxxxxxxxxxxxxxxxxxxxx
            x  Element         Atom        Fractional coordinates of atoms  x
            x                 Number           u          v          w      x
            x---------------------------------------------------------------x
            x  H                 1         0.469833   0.445486   0.545588   x
            x  H                 2         0.542649   0.518894   0.543913   x
            x  H                 3         0.383919   0.487875   0.591620   x
            x  H                 4         0.455495   0.560634   0.589938   x
            x  H                 5         0.342695   0.558866   0.491433   x
            x  H                 6         0.473170   0.547602   0.495424   x
            x  H                 7         0.322193   0.433610   0.496630   x
            x  H                 8         0.452796   0.426722   0.493439   x
            x  H                 9         0.313221   0.489634   0.447251   x
            x  H                10         0.364525   0.410658   0.444799   x
            x  H                11         0.546650   0.596537   0.430687   x
            x  H                12         0.473544   0.458350   0.384659   x
            x  H                13         0.647256   0.456997   0.427529   x
            x  H                14         0.321314   0.512546   0.540030   x
            x  H                15         0.386935   0.580154   0.539763   x
            x  H                16         0.539616   0.422530   0.599441   x
            x  H                17         0.611039   0.495027   0.597597   x
            x  H                18         0.580486   0.463031   0.650409   x
            x  H                19         0.450185   0.466046   0.644574   x
            x  H                20         0.522050   0.538954   0.642710   x
            x  C                 1         0.471953   0.497680   0.551585   x
            x  C                 2         0.456652   0.507884   0.584887   x
            x  C                 3         0.400160   0.526518   0.500942   x
            x  C                 4         0.388894   0.457896   0.487578   x
            x  C                 5         0.379273   0.460450   0.453230   x
            x  C                 6         0.537544   0.475619   0.603891   x
            x  C                 7         0.521668   0.486525   0.637165   x
            x  N                 1         0.387261   0.532352   0.534161   x
            x  O                 1         0.476058   0.496859   0.396361   x
            x  O                 2         0.589687   0.450564   0.439280   x
            x  O                 3         0.512360   0.568236   0.443894   x
            x  Si                1         0.491137   0.493935   0.432199   x
            xxxxxxxxxxxxxxxxxxxxxxxxxxxxxxxxxxxxxxxxxxxxxxxxxxxxxxxxxxxxxxxxx
 
 
------------------------------------------------------------------------ <-- SCF
SCF loop      Energy                           Energy gain       Timer   <-- SCF
                                               per atom          (sec)   <-- SCF
------------------------------------------------------------------------ <-- SCF
Initial  -3.19198621E+003                                         78.08  <-- SCF
      1  -3.19044573E+003                   -4.81400149E-002      78.91  <-- SCF
      2  -3.19046928E+003                    7.35962848E-004      80.11  <-- SCF
      3  -3.19044548E+003                   -7.43910259E-004      81.14  <-- SCF
      4  -3.19046089E+003                    4.81537813E-004      82.16  <-- SCF
      5  -3.19046107E+003                    5.67188047E-006      83.01  <-- SCF
      6  -3.19046121E+003                    4.49959153E-006      83.83  <-- SCF
      7  -3.19046128E+003                    2.05702614E-006      84.64  <-- SCF
      8  -3.19046134E+003                    1.77407406E-006      85.42  <-- SCF
      9  -3.19046137E+003                    8.87134187E-007      86.20  <-- SCF
     10  -3.19046141E+003                    1.33162510E-006      86.99  <-- SCF
     11  -3.19046142E+003                    4.75881675E-007      87.78  <-- SCF
------------------------------------------------------------------------ <-- SCF
 
Final energy =  -3190.461422914     eV
(energy not corrected for finite basis set)
 
(SEDC) Total Energy Correction : -0.763768E+00 eV

Dispersion corrected final energy* =  -3191.225190619     eV
 
 ************************************** Forces **************************************
 *                                                                                  *
 *                           Cartesian components (eV/A)                            *
 * -------------------------------------------------------------------------------- *
 *                         x                    y                    z              *
 *                                                                                  *
 * H               1     -0.08240              0.09612             -0.11966         *
 * H               2     -0.25209              0.01647             -0.07926         *
 * H               3      0.02546             -0.01067             -0.01280         *
 * H               4     -0.04527              0.16327             -0.03755         *
 * H               5      0.12800             -0.03825             -0.00916         *
 * H               6     -0.15702              0.00264              0.10917         *
 * H               7      0.00999              0.09612              0.07864         *
 * H               8     -0.07364              0.10677              0.02307         *
 * H               9      0.14536              0.06204             -0.04580         *
 * H              10      0.07631              0.03538              0.09048         *
 * H              11      0.50823              0.74660             -0.64529         *
 * H              12     -0.02305             -0.89007             -0.67388         *
 * H              13      0.81167              0.12275             -0.56436         *
 * H              14     -0.58099             -0.25528              0.35453         *
 * H              15     -0.03213              0.79081              0.29599         *
 * H              16     -0.03878             -0.03155             -0.05172         *
 * H              17     -0.09049             -0.01375             -0.09802         *
 * H              18     -0.07510             -0.00609             -0.13857         *
 * H              19      0.05316              0.04095             -0.01494         *
 * H              20      0.00402              0.07938             -0.02875         *
 * C               1     -0.49539              0.28029              0.36771         *
 * C               2     -0.00330             -0.09301              0.01406         *
 * C               3     -0.19636              0.43869             -0.76335         *
 * C               4      0.05426             -0.26327              0.19535         *
 * C               5      0.41094              0.27960              0.09813         *
 * C               6      0.20494             -0.12216              0.01105         *
 * C               7     -0.09887             -0.02032              0.11830         *
 * N               1      1.75780             -1.54162             -0.55643         *
 * O               1     -0.34156              1.09089              0.14888         *
 * O               2     -0.59622             -0.97424              1.13876         *
 * O               3     -0.79201              0.18033              0.88328         *
 * Si              1     -0.21549             -0.36884             -0.08785         *
 *                                                                                  *
 ************************************************************************************
 EXP precond LBFGS => estimated parameter mu :  2.245       eV/A**2
 LBFGS: finished iteration     0 with enthalpy= -3.19123664E+003 eV
  
 +-----------+-----------------+-----------------+------------+-----+ <-- LBFGS
 | Parameter |      value      |    tolerance    |    units   | OK? | <-- LBFGS
 +-----------+-----------------+-----------------+------------+-----+ <-- LBFGS
 |  dE/ion   |   0.000000E+000 |   2.000000E-005 |         eV | No  | <-- LBFGS
 |  |F|max   |   2.403350E+000 |   5.000000E-002 |       eV/A | No  | <-- LBFGS
 |  |dR|max  |   7.853740E-015 |   2.000000E-003 |          A | No  | <-- LBFGS
 +-----------+-----------------+-----------------+------------+-----+ <-- LBFGS
  

================================================================================
 Starting LBFGS iteration          1 ...
================================================================================
  
 +------------+-------------+-------------+-----------------+ <-- min LBFGS
 |    Step    |   lambda    |   F.delta'  |    enthalpy     | <-- min LBFGS
 +------------+-------------+-------------+-----------------+ <-- min LBFGS
 |  previous  |    0.000000 |    1.761435 |    -3191.236640 | <-- min LBFGS
 +------------+-------------+-------------+-----------------+ <-- min LBFGS
  

--------------------------------------------------------------------------------
 LBFGS: starting iteration         1 with trial guess (lambda=  1.000000)
--------------------------------------------------------------------------------
 
                           -------------------------------
                                     Cell Contents
                           -------------------------------
 
            xxxxxxxxxxxxxxxxxxxxxxxxxxxxxxxxxxxxxxxxxxxxxxxxxxxxxxxxxxxxxxxxx
            x  Element         Atom        Fractional coordinates of atoms  x
            x                 Number           u          v          w      x
            x---------------------------------------------------------------x
            x  H                 1         0.467934   0.445544   0.544992   x
            x  H                 2         0.539806   0.518434   0.543315   x
            x  H                 3         0.382646   0.487055   0.590897   x
            x  H                 4         0.453993   0.560246   0.589150   x
            x  H                 5         0.344839   0.558634   0.490753   x
            x  H                 6         0.473056   0.547719   0.494955   x
            x  H                 7         0.323791   0.434070   0.496800   x
            x  H                 8         0.453657   0.427251   0.493507   x
            x  H                 9         0.316299   0.490936   0.447452   x
            x  H                10         0.367166   0.411913   0.445327   x
            x  H                11         0.542863   0.603482   0.430515   x
            x  H                12         0.465932   0.455340   0.382468   x
            x  H                13         0.649371   0.451497   0.428653   x
            x  H                14         0.321231   0.509883   0.539965   x
            x  H                15         0.389434   0.580302   0.539527   x
            x  H                16         0.537662   0.421877   0.598447   x
            x  H                17         0.608732   0.494180   0.596521   x
            x  H                18         0.577522   0.462556   0.649116   x
            x  H                19         0.448343   0.465690   0.643555   x
            x  H                20         0.519852   0.538504   0.641617   x
            x  C                 1         0.469579   0.497416   0.551315   x
            x  C                 2         0.455241   0.507200   0.584194   x
            x  C                 3         0.401004   0.526829   0.499797   x
            x  C                 4         0.390592   0.457931   0.487721   x
            x  C                 5         0.382394   0.461767   0.453621   x
            x  C                 6         0.536223   0.474627   0.602949   x
            x  C                 7         0.519251   0.486118   0.636208   x
            x  N                 1         0.393124   0.528868   0.533370   x
            x  O                 1         0.467654   0.498765   0.395311   x
            x  O                 2         0.585793   0.443067   0.442194   x
            x  O                 3         0.504150   0.572465   0.445351   x
            x  Si                1         0.486431   0.492804   0.432763   x
            xxxxxxxxxxxxxxxxxxxxxxxxxxxxxxxxxxxxxxxxxxxxxxxxxxxxxxxxxxxxxxxxx
 
 
------------------------------------------------------------------------ <-- SCF
SCF loop      Energy                           Energy gain       Timer   <-- SCF
                                               per atom          (sec)   <-- SCF
------------------------------------------------------------------------ <-- SCF
Initial  -3.20595534E+003                                         89.20  <-- SCF
      1  -3.18806075E+003                   -5.59205992E-001      90.02  <-- SCF
      2  -3.19009967E+003                    6.37164697E-002      91.36  <-- SCF
      3  -3.18962289E+003                   -1.48994172E-002      92.52  <-- SCF
      4  -3.18969422E+003                    2.22893904E-003      93.62  <-- SCF
      5  -3.18973444E+003                    1.25704925E-003      94.65  <-- SCF
      6  -3.18973756E+003                    9.72723499E-005      95.76  <-- SCF
      7  -3.18973870E+003                    3.58570112E-005      96.58  <-- SCF
      8  -3.18973943E+003                    2.27449439E-005      97.37  <-- SCF
      9  -3.18974021E+003                    2.42488483E-005      98.21  <-- SCF
     10  -3.18974056E+003                    1.09573248E-005      99.03  <-- SCF
     11  -3.18974074E+003                    5.57882332E-006      99.83  <-- SCF
     12  -3.18974087E+003                    4.13139749E-006     100.62  <-- SCF
     13  -3.18974093E+003                    1.87487665E-006     101.41  <-- SCF
     14  -3.18974100E+003                    2.20109613E-006     102.20  <-- SCF
     15  -3.18974106E+003                    1.76741978E-006     102.98  <-- SCF
     16  -3.18974113E+003                    2.19038114E-006     103.77  <-- SCF
     17  -3.18974120E+003                    2.37267501E-006     104.57  <-- SCF
     18  -3.18974129E+003                    2.74404243E-006     105.36  <-- SCF
     19  -3.18974135E+003                    1.79596430E-006     106.16  <-- SCF
     20  -3.18974141E+003                    1.98508077E-006     106.96  <-- SCF
     21  -3.18974146E+003                    1.37837861E-006     107.76  <-- SCF
     22  -3.18974148E+003                    8.83273211E-007     108.56  <-- SCF
     23  -3.18974151E+003                    9.43814502E-007     109.37  <-- SCF
------------------------------------------------------------------------ <-- SCF
 
Final energy =  -3189.741513547     eV
(energy not corrected for finite basis set)
 
(SEDC) Total Energy Correction : -0.773925E+00 eV

Dispersion corrected final energy* =  -3190.515438182     eV
 
 ************************************** Forces **************************************
 *                                                                                  *
 *                           Cartesian components (eV/A)                            *
 * -------------------------------------------------------------------------------- *
 *                         x                    y                    z              *
 *                                                                                  *
 * H               1      0.12595             -0.16300              0.08543         *
 * H               2      0.11545             -0.12854              0.14418         *
 * H               3     -0.03793             -0.00459              0.02176         *
 * H               4     -0.03185              0.00498              0.02237         *
 * H               5     -0.53120              0.42578             -0.09747         *
 * H               6      0.43348              0.19449             -0.24953         *
 * H               7     -0.04510              0.07555              0.01525         *
 * H               8      0.32322             -0.12484              0.15487         *
 * H               9      0.11630             -0.04018              0.02031         *
 * H              10      0.01168              0.01237             -0.04669         *
 * H              11     -1.59036             -1.97438              1.89982         *
 * H              12      0.12122              2.59846              1.89018         *
 * H              13     -2.71790             -0.53446              1.90623         *
 * H              14      1.54592              0.55154             -0.47811         *
 * H              15      0.09572             -1.75839             -0.35609         *
 * H              16     -0.00082             -0.21735             -0.08637         *
 * H              17      0.21299              0.04689             -0.08741         *
 * H              18      0.18706             -0.14198              0.16509         *
 * H              19     -0.14541             -0.04516              0.00925         *
 * H              20      0.02984              0.13162             -0.00493         *
 * C               1      1.11960             -0.67788             -0.27050         *
 * C               2     -0.19008              0.14379              0.27135         *
 * C               3      0.54818             -0.77165              0.71971         *
 * C               4     -0.13892              0.14423             -0.35395         *
 * C               5     -1.35170             -0.71337              0.49541         *
 * C               6     -0.18777              0.13033              0.17732         *
 * C               7      0.02621              0.02906             -0.24915         *
 * N               1     -3.29321              2.33811              0.63311         *
 * O               1      0.09039             -2.53329             -0.10750         *
 * O               2      1.23850              1.54020             -2.31953         *
 * O               3      1.32176              0.26963             -2.54553         *
 * Si              1      2.59880              1.19201             -1.37889         *
 *                                                                                  *
 ************************************************************************************
  
 +------------+-------------+-------------+-----------------+ <-- min LBFGS
 |    Step    |   lambda    |   F.delta'  |    enthalpy     | <-- min LBFGS
 +------------+-------------+-------------+-----------------+ <-- min LBFGS
 |  previous  |    0.000000 |    1.761435 |    -3191.236640 | <-- min LBFGS
 | trial step |    1.000000 |   -3.665832 |    -3190.515438 | <-- min LBFGS
 +------------+-------------+-------------+-----------------+ <-- min LBFGS
  

--------------------------------------------------------------------------------
 LBFGS: improving iteration         1 with line minimization (lambda=  0.324553)
--------------------------------------------------------------------------------
 
                           -------------------------------
                                     Cell Contents
                           -------------------------------
 
            xxxxxxxxxxxxxxxxxxxxxxxxxxxxxxxxxxxxxxxxxxxxxxxxxxxxxxxxxxxxxxxxx
            x  Element         Atom        Fractional coordinates of atoms  x
            x                 Number           u          v          w      x
            x---------------------------------------------------------------x
            x  H                 1         0.468413   0.445135   0.545178   x
            x  H                 2         0.540912   0.518554   0.543502   x
            x  H                 3         0.382763   0.487337   0.591191   x
            x  H                 4         0.454211   0.560434   0.589488   x
            x  H                 5         0.342695   0.558712   0.490978   x
            x  H                 6         0.472328   0.547529   0.495038   x
            x  H                 7         0.322043   0.433365   0.496452   x
            x  H                 8         0.452280   0.426487   0.493227   x
            x  H                 9         0.313564   0.489789   0.447074   x
            x  H                10         0.364660   0.410629   0.444728   x
            x  H                11         0.544608   0.598821   0.430387   x
            x  H                12         0.470269   0.457032   0.383706   x
            x  H                13         0.647182   0.454867   0.427650   x
            x  H                14         0.320620   0.511474   0.539790   x
            x  H                15         0.387000   0.580185   0.539467   x
            x  H                16         0.538168   0.421903   0.598929   x
            x  H                17         0.609502   0.494498   0.597058   x
            x  H                18         0.578720   0.462546   0.649833   x
            x  H                19         0.448793   0.465606   0.644082   x
            x  H                20         0.520522   0.538673   0.642194   x
            x  C                 1         0.470378   0.497347   0.551284   x
            x  C                 2         0.455396   0.507442   0.584465   x
            x  C                 3         0.399676   0.526450   0.500338   x
            x  C                 4         0.388698   0.457564   0.487389   x
            x  C                 5         0.379548   0.460541   0.453115   x
            x  C                 6         0.536301   0.474995   0.603398   x
            x  C                 7         0.520069   0.486118   0.636689   x
            x  N                 1         0.388418   0.531068   0.533683   x
            x  O                 1         0.472524   0.497229   0.395777   x
            x  O                 2         0.587624   0.447772   0.439983   x
            x  O                 3         0.508881   0.569557   0.444124   x
            x  Si                1         0.488799   0.493312   0.432138   x
            xxxxxxxxxxxxxxxxxxxxxxxxxxxxxxxxxxxxxxxxxxxxxxxxxxxxxxxxxxxxxxxxx
 
 
------------------------------------------------------------------------ <-- SCF
SCF loop      Energy                           Energy gain       Timer   <-- SCF
                                               per atom          (sec)   <-- SCF
------------------------------------------------------------------------ <-- SCF
Initial  -3.20279376E+003                                        110.76  <-- SCF
      1  -3.19032556E+003                   -3.89631128E-001     111.62  <-- SCF
      2  -3.19078032E+003                    1.42112327E-002     112.73  <-- SCF
      3  -3.19053293E+003                   -7.73120520E-003     113.78  <-- SCF
      4  -3.19059629E+003                    1.98010298E-003     114.91  <-- SCF
      5  -3.19061917E+003                    7.14945756E-004     115.94  <-- SCF
      6  -3.19062011E+003                    2.94741829E-005     116.83  <-- SCF
      7  -3.19062051E+003                    1.25203206E-005     117.62  <-- SCF
      8  -3.19062074E+003                    7.24740749E-006     118.40  <-- SCF
      9  -3.19062098E+003                    7.49185484E-006     119.19  <-- SCF
     10  -3.19062122E+003                    7.55189241E-006     119.97  <-- SCF
     11  -3.19062134E+003                    3.56848635E-006     120.75  <-- SCF
     12  -3.19062154E+003                    6.19380955E-006     121.54  <-- SCF
     13  -3.19062161E+003                    2.37316621E-006     122.33  <-- SCF
     14  -3.19062174E+003                    4.10696988E-006     123.12  <-- SCF
     15  -3.19062182E+003                    2.30108400E-006     123.91  <-- SCF
     16  -3.19062193E+003                    3.47113759E-006     124.70  <-- SCF
     17  -3.19062196E+003                    8.82059417E-007     125.50  <-- SCF
     18  -3.19062203E+003                    2.28841933E-006     126.29  <-- SCF
     19  -3.19062206E+003                    9.60513821E-007     127.09  <-- SCF
     20  -3.19062210E+003                    1.27808462E-006     127.89  <-- SCF
     21  -3.19062213E+003                    9.69396446E-007     130.55  <-- SCF
     22  -3.19062215E+003                    6.06126464E-007     132.32  <-- SCF
------------------------------------------------------------------------ <-- SCF
 
Final energy =  -3190.622151802     eV
(energy not corrected for finite basis set)
 
(SEDC) Total Energy Correction : -0.766936E+00 eV

Dispersion corrected final energy* =  -3191.389088235     eV
 
 ************************************** Forces **************************************
 *                                                                                  *
 *                           Cartesian components (eV/A)                            *
 * -------------------------------------------------------------------------------- *
 *                         x                    y                    z              *
 *                                                                                  *
 * H               1     -0.04331              0.10625             -0.04318         *
 * H               2     -0.16108             -0.04480             -0.00405         *
 * H               3     -0.01598             -0.00614             -0.00414         *
 * H               4     -0.03729              0.02008             -0.03021         *
 * H               5     -0.07466              0.07622             -0.03768         *
 * H               6      0.04231              0.05330             -0.01150         *
 * H               7     -0.02371              0.09974              0.06797         *
 * H               8      0.05825              0.05831              0.06252         *
 * H               9      0.13068              0.02689             -0.02119         *
 * H              10      0.06774              0.09239              0.05652         *
 * H              11     -0.36143             -0.42832              0.41670         *
 * H              12      0.06504              0.63619              0.45416         *
 * H              13     -0.70475             -0.14583              0.47127         *
 * H              14      0.18544              0.05192              0.05358         *
 * H              15     -0.00390             -0.30760              0.02258         *
 * H              16     -0.02673             -0.01423             -0.05229         *
 * H              17     -0.00424             -0.00840             -0.09130         *
 * H              18     -0.02590             -0.02865             -0.06875         *
 * H              19     -0.00283              0.02444             -0.00667         *
 * H              20      0.01525              0.01312             -0.04650         *
 * C               1     -0.04755             -0.00614              0.09523         *
 * C               2     -0.05075              0.03875              0.09993         *
 * C               3      0.02087              0.00823             -0.30296         *
 * C               4      0.01477             -0.06096              0.02917         *
 * C               5     -0.09422             -0.04692              0.17602         *
 * C               6      0.08939             -0.06104              0.05966         *
 * C               7     -0.04227              0.04912              0.00674         *
 * N               1      0.13693             -0.20657              0.00023         *
 * O               1     -0.14485             -0.46245             -0.09794         *
 * O               2      0.19528             -0.04295             -0.24480         *
 * O               3      0.03020              0.25134             -0.55024         *
 * Si              1      0.81330              0.26471             -0.45891         *
 *                                                                                  *
 ************************************************************************************
  
 +------------+-------------+-------------+-----------------+ <-- min LBFGS
 |    Step    |   lambda    |   F.delta'  |    enthalpy     | <-- min LBFGS
 +------------+-------------+-------------+-----------------+ <-- min LBFGS
 |  previous  |    0.000000 |    1.761435 |    -3191.236640 | <-- min LBFGS
 | trial step |    1.000000 |   -3.665832 |    -3190.515438 | <-- min LBFGS
 |  line step |    0.324553 |   -0.248289 |    -3191.389088 | <-- min LBFGS
 +------------+-------------+-------------+-----------------+ <-- min LBFGS
  
 LBFGS: finished iteration     1 with enthalpy= -3.19138909E+003 eV
  
 +-----------+-----------------+-----------------+------------+-----+ <-- LBFGS
 | Parameter |      value      |    tolerance    |    units   | OK? | <-- LBFGS
 +-----------+-----------------+-----------------+------------+-----+ <-- LBFGS
 |  dE/ion   |   4.764004E-003 |   2.000000E-005 |         eV | No  | <-- LBFGS
 |  |F|max   |   9.706275E-001 |   5.000000E-002 |       eV/A | No  | <-- LBFGS
 |  |dR|max  |   6.749135E-002 |   2.000000E-003 |          A | No  | <-- LBFGS
 +-----------+-----------------+-----------------+------------+-----+ <-- LBFGS
  

================================================================================
 Starting LBFGS iteration          2 ...
================================================================================
  
 +------------+-------------+-------------+-----------------+ <-- min LBFGS
 |    Step    |   lambda    |   F.delta'  |    enthalpy     | <-- min LBFGS
 +------------+-------------+-------------+-----------------+ <-- min LBFGS
 |  previous  |    0.000000 |    0.611871 |    -3191.389088 | <-- min LBFGS
 +------------+-------------+-------------+-----------------+ <-- min LBFGS
  

--------------------------------------------------------------------------------
 LBFGS: starting iteration         2 with trial guess (lambda=  1.000000)
--------------------------------------------------------------------------------
 
                           -------------------------------
                                     Cell Contents
                           -------------------------------
 
            xxxxxxxxxxxxxxxxxxxxxxxxxxxxxxxxxxxxxxxxxxxxxxxxxxxxxxxxxxxxxxxxx
            x  Element         Atom        Fractional coordinates of atoms  x
            x                 Number           u          v          w      x
            x---------------------------------------------------------------x
            x  H                 1         0.468155   0.445175   0.544864   x
            x  H                 2         0.539713   0.517810   0.543213   x
            x  H                 3         0.382485   0.486688   0.590781   x
            x  H                 4         0.453763   0.559879   0.589017   x
            x  H                 5         0.344586   0.558809   0.490563   x
            x  H                 6         0.473798   0.547651   0.494708   x
            x  H                 7         0.324254   0.434401   0.496812   x
            x  H                 8         0.454548   0.427397   0.493534   x
            x  H                 9         0.317292   0.491202   0.447485   x
            x  H                10         0.367970   0.412408   0.445439   x
            x  H                11         0.539698   0.599368   0.430881   x
            x  H                12         0.468369   0.460657   0.385111   x
            x  H                13         0.640552   0.452483   0.429789   x
            x  H                14         0.322733   0.510017   0.539776   x
            x  H                15         0.389233   0.578568   0.539337   x
            x  H                16         0.537588   0.421340   0.598191   x
            x  H                17         0.608887   0.493799   0.596235   x
            x  H                18         0.577566   0.462125   0.648830   x
            x  H                19         0.448133   0.465391   0.643284   x
            x  H                20         0.519839   0.538296   0.641312   x
            x  C                 1         0.469944   0.496818   0.551167   x
            x  C                 2         0.455021   0.506870   0.584122   x
            x  C                 3         0.401489   0.526555   0.499648   x
            x  C                 4         0.391124   0.458091   0.487661   x
            x  C                 5         0.382560   0.461876   0.453745   x
            x  C                 6         0.536204   0.474227   0.602767   x
            x  C                 7         0.519163   0.485834   0.635909   x
            x  N                 1         0.392119   0.528873   0.533350   x
            x  O                 1         0.469745   0.499453   0.396703   x
            x  O                 2         0.583355   0.445178   0.441779   x
            x  O                 3         0.504664   0.571141   0.444115   x
            x  Si                1         0.491015   0.494592   0.432205   x
            xxxxxxxxxxxxxxxxxxxxxxxxxxxxxxxxxxxxxxxxxxxxxxxxxxxxxxxxxxxxxxxxx
 
 
------------------------------------------------------------------------ <-- SCF
SCF loop      Energy                           Energy gain       Timer   <-- SCF
                                               per atom          (sec)   <-- SCF
------------------------------------------------------------------------ <-- SCF
Initial  -3.20637673E+003                                        134.13  <-- SCF
      1  -3.19033676E+003                   -5.01249066E-001     134.98  <-- SCF
      2  -3.19061715E+003                    8.76219254E-003     136.15  <-- SCF
      3  -3.19047741E+003                   -4.36693110E-003     137.18  <-- SCF
      4  -3.19056247E+003                    2.65836519E-003     138.21  <-- SCF
      5  -3.19056580E+003                    1.03942146E-004     139.37  <-- SCF
      6  -3.19056639E+003                    1.83526355E-005     140.27  <-- SCF
      7  -3.19056638E+003                   -3.58018152E-007     141.09  <-- SCF
      8  -3.19056617E+003                   -6.56059185E-006     141.96  <-- SCF
      9  -3.19056611E+003                   -1.61895121E-006     142.74  <-- SCF
     10  -3.19056618E+003                    1.99169716E-006     143.53  <-- SCF
------------------------------------------------------------------------ <-- SCF
 
Final energy =  -3190.566178387     eV
(energy not corrected for finite basis set)
 
(SEDC) Total Energy Correction : -0.780233E+00 eV

Dispersion corrected final energy* =  -3191.346411503     eV
 
 ************************************** Forces **************************************
 *                                                                                  *
 *                           Cartesian components (eV/A)                            *
 * -------------------------------------------------------------------------------- *
 *                         x                    y                    z              *
 *                                                                                  *
 * H               1      0.08347             -0.27449              0.03444         *
 * H               2      0.23920             -0.02778              0.06878         *
 * H               3     -0.05031             -0.01946              0.02174         *
 * H               4     -0.02225              0.00703              0.03717         *
 * H               5     -0.21451              0.15206              0.00397         *
 * H               6      0.24324              0.13518             -0.11540         *
 * H               7     -0.03814              0.03869              0.04997         *
 * H               8      0.18886             -0.06814              0.10842         *
[...]
 * H              15      0.00403             -0.00030             -0.00234         *
 * H              16      0.00154             -0.00112             -0.00137         *
 * H              17      0.00278              0.00087             -0.00063         *
 * H              18      0.00991             -0.00645              0.00591         *
 * H              19      0.00581              0.00333             -0.00081         *
 * H              20      0.00227              0.00124             -0.00034         *
 * C               1     -0.02133              0.01019              0.00509         *
 * C               2     -0.00584              0.00410              0.00367         *
 * C               3      0.00698              0.01010             -0.00726         *
 * C               4     -0.00959             -0.00699             -0.00514         *
 * C               5     -0.01006              0.00065              0.00589         *
 * C               6      0.00056             -0.00014              0.00642         *
 * C               7     -0.01137              0.00424             -0.01048         *
 * N               1     -0.00036             -0.01394              0.01826         *
 * O               1     -0.00529              0.00211              0.00236         *
 * O               2     -0.01102             -0.00229              0.00985         *
 * O               3     -0.00725              0.01188             -0.00079         *
 * Si              1      0.00780              0.00135             -0.00931         *
 *                                                                                  *
 ************************************************************************************
 
 Pseudo atomic calculation performed for H 1s1
 
 Converged in 13 iterations to a total energy of -12.4790 eV
 
 Pseudo atomic calculation performed for C 2s2 2p2
 
 Converged in 17 iterations to a total energy of -148.5208 eV
 
 Pseudo atomic calculation performed for N 2s2 2p3
 
 Converged in 21 iterations to a total energy of -268.1820 eV
 
 Pseudo atomic calculation performed for O 2s2 2p4
 
 Converged in 23 iterations to a total energy of -432.6536 eV
 
 Pseudo atomic calculation performed for Si 3s2 3p2
 
 Converged in 11 iterations to a total energy of -165.0683 eV
Charge spilling parameter for spin component 1 = 1.55%
 
            Orbital Populations       
     Ion    Atom   Orbital             Charge
  -------------------------------------------
      H     1      S                    0.690
      H     2      S                    0.685
      H     3      S                    0.733
      H     4      S                    0.735
      H     5      S                    0.688
      H     6      S                    0.683
      H     7      S                    0.741
      H     8      S                    0.719
      H     9      S                    0.724
      H    10      S                    0.700
      H    11      S                    0.459
      H    12      S                    0.454
      H    13      S                    0.466
      H    14      S                    0.515
      H    15      S                    0.504
      H    16      S                    0.726
      H    17      S                    0.729
      H    18      S                    0.700
      H    19      S                    0.728
      H    20      S                    0.726
      C     1      S                    1.298
      C     1      Px                   0.991
      C     1      Py                   1.143
      C     1      Pz                   0.969
      C     2      S                    1.297
      C     2      Px                   1.128
      C     2      Py                   1.171
      C     2      Pz                   0.924
      C     3      S                    1.302
      C     3      Px                   1.270
      C     3      Py                   1.110
      C     3      Pz                   0.726
      C     4      S                    1.294
      C     4      Px                   1.212
      C     4      Py                   0.988
      C     4      Pz                   1.025
      C     5      S                    1.408
      C     5      Px                   1.286
      C     5      Py                   1.262
      C     5      Pz                   1.009
      C     6      S                    1.305
      C     6      Px                   1.069
      C     6      Py                   1.152
      C     6      Pz                   0.986
      C     7      S                    1.400
      C     7      Px                   1.209
      C     7      Py                   1.204
      C     7      Pz                   0.982
      N     1      S                    1.588
      N     1      Px                   1.362
      N     1      Py                   1.407
      N     1      Pz                   1.279
      O     1      S                    1.854
      O     1      Px                   1.896
      O     1      Py                   1.726
      O     1      Pz                   1.617
      O     2      S                    1.857
      O     2      Px                   1.526
      O     2      Py                   1.857
      O     2      Pz                   1.859
      O     3      S                    1.855
      O     3      Px                   1.894
      O     3      Py                   1.578
      O     3      Pz                   1.790
     Si     1      S                    0.727
     Si     1      Px                   0.450
     Si     1      Py                   0.313
     Si     1      Pz                   0.344
  -------------------------------------------
                           Total:      74.000
  -------------------------------------------
 
     Atomic Populations (Mulliken)
     -----------------------------
Species          Ion     s       p       d       f      Total   Charge (e)
==========================================================================
  H               1     0.690   0.000   0.000   0.000   0.690     0.310
  H               2     0.685   0.000   0.000   0.000   0.685     0.315
  H               3     0.733   0.000   0.000   0.000   0.733     0.267
  H               4     0.735   0.000   0.000   0.000   0.735     0.265
  H               5     0.688   0.000   0.000   0.000   0.688     0.312
  H               6     0.683   0.000   0.000   0.000   0.683     0.317
  H               7     0.741   0.000   0.000   0.000   0.741     0.259
  H               8     0.719   0.000   0.000   0.000   0.719     0.281
  H               9     0.724   0.000   0.000   0.000   0.724     0.276
  H              10     0.700   0.000   0.000   0.000   0.700     0.300
  H              11     0.459   0.000   0.000   0.000   0.459     0.541
  H              12     0.454   0.000   0.000   0.000   0.454     0.546
  H              13     0.466   0.000   0.000   0.000   0.466     0.534
  H              14     0.515   0.000   0.000   0.000   0.515     0.485
  H              15     0.504   0.000   0.000   0.000   0.504     0.496
  H              16     0.726   0.000   0.000   0.000   0.726     0.274
  H              17     0.729   0.000   0.000   0.000   0.729     0.271
  H              18     0.700   0.000   0.000   0.000   0.700     0.300
  H              19     0.728   0.000   0.000   0.000   0.728     0.272
  H              20     0.726   0.000   0.000   0.000   0.726     0.274
  C               1     1.298   3.102   0.000   0.000   4.400    -0.400
  C               2     1.297   3.223   0.000   0.000   4.520    -0.520
  C               3     1.302   3.106   0.000   0.000   4.407    -0.407
  C               4     1.294   3.225   0.000   0.000   4.519    -0.519
  C               5     1.408   3.557   0.000   0.000   4.964    -0.964
  C               6     1.305   3.206   0.000   0.000   4.511    -0.511
  C               7     1.400   3.395   0.000   0.000   4.794    -0.794
  N               1     1.588   4.048   0.000   0.000   5.636    -0.636
  O               1     1.854   5.239   0.000   0.000   7.093    -1.093
  O               2     1.857   5.241   0.000   0.000   7.098    -1.098
  O               3     1.855   5.262   0.000   0.000   7.117    -1.117
  Si              1     0.727   1.107   0.000   0.000   1.834     2.166
==========================================================================
 
                 Bond                   Population      Length (A)
======================================================================
              H 13 -- O 2                    0.53        0.96883
              H 12 -- O 1                    0.53        0.96889
              H 11 -- O 3                    0.53        0.96973
              H 15 -- N 1                    0.68        1.02929
              H 14 -- N 1                    0.67        1.02988
              H 1  -- C 1                    0.86        1.09583
              H 2  -- C 1                    0.85        1.09711
              H 18 -- C 7                    0.81        1.09734
              H 6  -- C 3                    0.85        1.09788
              H 5  -- C 3                    0.85        1.09935
              H 19 -- C 7                    0.81        1.09953
              H 8  -- C 4                    0.86        1.09958
              H 20 -- C 7                    0.81        1.09961
              H 10 -- C 5                    0.82        1.10111
              H 16 -- C 6                    0.84        1.10125
              H 9  -- C 5                    0.83        1.10215
              H 17 -- C 6                    0.84        1.10249
              H 4  -- C 2                    0.85        1.10395
              H 3  -- C 2                    0.85        1.10455
              H 7  -- C 4                    0.84        1.10569
               C 1 -- N 1                    0.51        1.51195
               C 3 -- N 1                    0.50        1.51319
               C 1 -- C 2                    0.71        1.51822
               C 3 -- C 4                    0.70        1.52324
               C 6 -- C 7                    0.65        1.52770
               C 2 -- C 6                    0.68        1.53264
               C 4 -- C 5                    0.65        1.53916
               O 1 -- Si 1                   0.52        1.64024
              H 14 -- H 15                  -0.11        1.64909
               O 2 -- Si 1                   0.49        1.65104
               O 3 -- Si 1                   0.48        1.65644
              H 9  -- H 10                  -0.09        1.76311
              H 16 -- H 17                  -0.12        1.76939
              H 18 -- H 19                  -0.10        1.77406
              H 3  -- H 4                   -0.12        1.77596
              H 18 -- H 20                  -0.10        1.77605
              H 7  -- H 8                   -0.12        1.77764
              H 5  -- H 6                   -0.10        1.77847
              H 19 -- H 20                  -0.10        1.78100
              H 1  -- H 2                   -0.11        1.78418
               C 5 -- Si 1                   0.59        1.87810
              H 14 -- C 1                   -0.13        2.07233
              H 15 -- C 1                   -0.13        2.07596
              H 14 -- C 3                   -0.13        2.08678
              H 15 -- C 3                   -0.13        2.09103
              H 5  -- N 1                   -0.12        2.10045
              H 2  -- N 1                   -0.11        2.10442
              H 1  -- N 1                   -0.11        2.10518
              H 6  -- N 1                   -0.11        2.11204
              H 7  -- C 3                   -0.14        2.15264
              H 3  -- C 1                   -0.14        2.15617
              H 4  -- C 1                   -0.14        2.15619
              H 10 -- C 4                   -0.12        2.15753
              H 16 -- C 2                   -0.14        2.15834
              H 17 -- C 2                   -0.13        2.16383
              H 4  -- C 6                   -0.12        2.16540
              H 3  -- C 6                   -0.12        2.16571
              H 8  -- C 5                   -0.13        2.16602
              H 17 -- C 7                   -0.13        2.16641
              H 8  -- C 3                   -0.12        2.16669
              H 16 -- C 7                   -0.13        2.16817
              H 7  -- C 5                   -0.13        2.17451
              H 5  -- C 4                   -0.12        2.17648
              H 19 -- C 6                   -0.12        2.17694
              H 9  -- C 4                   -0.12        2.17753
              H 20 -- C 6                   -0.12        2.17770
              H 18 -- C 6                   -0.11        2.17918
              H 1  -- C 2                   -0.12        2.18046
              H 2  -- C 2                   -0.12        2.18412
              H 6  -- C 4                   -0.11        2.19710
              H 11 -- Si 1                  -0.13        2.26335
              H 13 -- Si 1                  -0.14        2.28324
              H 12 -- Si 1                  -0.12        2.29439
              H 1  -- H 8                   -0.04        2.30247
              H 5  -- H 15                  -0.04        2.32702
              H 1  -- H 14                  -0.04        2.36548
              H 7  -- H 14                  -0.00        2.38629
              H 6  -- O 3                   -0.00        2.38912
              H 4  -- H 15                  -0.01        2.39535
              H 5  -- H 14                  -0.03        2.40555
              H 6  -- H 15                  -0.02        2.41976
              H 2  -- H 15                  -0.03        2.43579
              H 7  -- H 10                  -0.04        2.44518
              H 10 -- Si 1                  -0.12        2.45057
              H 9  -- Si 1                  -0.13        2.46622
              H 2  -- H 6                   -0.01        2.48620
               C 2 -- N 1                   -0.14        2.48716
              H 6  -- H 8                   -0.04        2.48764
              H 3  -- H 14                  -0.01        2.48865
              H 5  -- H 9                   -0.01        2.49280
              H 16 -- H 18                  -0.03        2.49586
              H 8  -- H 10                  -0.02        2.50463
              H 17 -- H 20                  -0.03        2.50728
              H 3  -- H 16                  -0.03        2.50869
               C 4 -- N 1                   -0.13        2.51029
              H 1  -- H 3                   -0.04        2.51199
              H 4  -- H 17                  -0.03        2.51209
              H 7  -- H 9                   -0.03        2.52488
               C 1 -- C 6                   -0.14        2.52598
              H 17 -- H 18                  -0.03        2.52780
               C 3 -- C 5                   -0.15        2.52908
              H 2  -- H 4                   -0.03        2.52966
               C 2 -- C 7                   -0.16        2.53272
              H 3  -- H 19                  -0.01        2.54076
              H 16 -- H 19                  -0.03        2.54272
               C 1 -- C 3                   -0.13        2.56886
              H 5  -- H 7                   -0.03        2.57374
              H 2  -- H 17                  -0.01        2.58496
              H 1  -- H 16                  -0.01        2.59057
              H 4  -- H 20                  -0.01        2.59349
              H 15 -- C 2                   -0.04        2.61654
               O 1 -- O 3                   -0.08        2.62086
              H 11 -- O 1                   -0.01        2.63483
              H 7  -- N 1                   -0.04        2.64886
              H 14 -- C 4                   -0.04        2.68676
              H 14 -- C 2                   -0.03        2.68736
              H 4  -- N 1                   -0.03        2.70857
              H 5  -- C 5                   -0.04        2.71585
              H 3  -- N 1                   -0.03        2.72571
              H 2  -- C 3                   -0.04        2.73065
               O 2 -- O 3                   -0.07        2.73300
              H 16 -- C 1                   -0.04        2.74530
              H 17 -- C 1                   -0.04        2.75448
              H 3  -- C 7                   -0.04        2.75944
              H 4  -- C 7                   -0.04        2.76195
              H 9  -- C 3                   -0.04        2.76352
              H 1  -- C 4                   -0.03        2.77090
              H 19 -- C 2                   -0.04        2.77194
               C 5 -- O 2                   -0.11        2.77297
               O 1 -- O 2                   -0.07        2.77712
              H 6  -- C 1                   -0.04        2.77826
              H 1  -- C 3                   -0.02        2.80240
              H 2  -- C 6                   -0.03        2.80909
              H 20 -- C 2                   -0.03        2.81672
              H 8  -- O 2                    0.00        2.82165
              H 1  -- C 6                   -0.03        2.82181
              H 1  -- H 7                   -0.00        2.83643
              H 8  -- N 1                   -0.01        2.85056
               C 5 -- O 3                   -0.10        2.85532
               C 4 -- Si 1                  -0.13        2.88845
              H 8  -- C 1                   -0.02        2.89498
              H 6  -- C 5                   -0.01        2.90843
              H 3  -- H 15                  -0.00        2.93578
              H 2  -- H 14                   0.03        2.94801
              H 1  -- H 15                   0.03        2.94962
               C 5 -- O 1                   -0.08        2.95253
              H 6  -- H 14                   0.03        2.96406
              H 10 -- O 2                   -0.00        2.98752
======================================================================
 
 
     Hirshfeld Analysis
     ------------------
Species   Ion     Hirshfeld Charge (e)
======================================
  H        1                 0.07
  H        2                 0.07
  H        3                 0.05
  H        4                 0.05
  H        5                 0.07
  H        6                 0.06
  H        7                 0.04
  H        8                 0.05
  H        9                 0.05
  H       10                 0.06
  H       11                 0.17
  H       12                 0.18
  H       13                 0.17
  H       14                 0.17
  H       15                 0.18
  H       16                 0.05
  H       17                 0.04
  H       18                 0.06
  H       19                 0.05
  H       20                 0.05
  C        1                 0.01
  C        2                -0.06
  C        3                 0.01
  C        4                -0.06
  C        5                -0.14
  C        6                -0.05
  C        7                -0.10
  N        1                 0.03
  O        1                -0.28
  O        2                -0.29
  O        3                -0.28
  Si       1                 0.47
======================================
 

Writing analysis data to Conf_0005.castep_bin

Writing model to Conf_0005.check
 
 A BibTeX formatted list of references used in this run has been written to 
 Conf_0005.bib
 
Initialisation time =     25.49 s
Calculation time    =    580.54 s
Finalisation time   =      1.12 s
Total time          =    607.15 s
Peak Memory Use     = 7914104 kB
 
Overall parallel efficiency rating: Satisfactory (66%)
 
Data was distributed by:-
G-vector (48-way); efficiency rating: Satisfactory (66%)
High Water Mark     = 1880664 kB
