 Job started on host drago31040142.mgmt.cc.csic.es
 at Sun Mar 31 00:50:16 2024

 +-------------------------------------------------+
 |                                                 |
 |      CCC   AA    SSS  TTTTT  EEEEE  PPPP        |
 |     C     A  A  S       T    E      P   P       |
 |     C     AAAA   SS     T    EEE    PPPP        |
 |     C     A  A     S    T    E      P           |
 |      CCC  A  A  SSS     T    EEEEE  P           |
 |                                                 |
 +-------------------------------------------------+
 |                                                 |
 | Materials Studio CASTEP version 2024            |
 | Ab Initio Total Energy Program                  |
 |                                                 |
 | Authors:                                        |
 | M. Segall, M. Probert, C. Pickard, P. Hasnip,   |
 | S. Clark, K. Refson, J. R. Yates,               |
 | A. Bartok-Partay, M. Payne                      |
 |                                                 |
 | Contributors:                                   |
 | P. Lindan, P. Haynes, J. White, V. Milman,      |
 | N. Govind, M. Gibson, P. Tulip, V. Cocula,      |
 | B. Montanari, D. Quigley, M. Glover,            |
 | L. Bernasconi, A. Perlov, M. Plummer,           |
 | E. McNellis, J. Meyer, J. Gale, D. Jochym       |
 | J. Aarons, B. Walker, R. Gillen, D. Jones       |
 | T. Green, I. J. Bush, C. J. Armstrong,          |
 | E. J. Higgins, E. L. Brown, M. S. McFly,        |
 | J. Wilkins, B-C. Shih, P. J. P. Byrne,          |
 | R. J. Maurer, J. C. Womack, J. Dziedzic,        |
 | L. LeBlanc, T. K. Stenczel, J. Kermode,         |
 | S. Sturniolo, B. Shi, B. Durham, M. Evans,      |
 | M. J. Smith, A. Tamerus, Z. Hawkhead,           |
 | V. Ravindran, T. Hollins, S. A. Joyce,          |
 | R. T. Strong, A. M. Reilly                      |
 |                                                 |
 | Copyright (c) 2000 - 2023                       |
 |                                                 |
 | Please cite                                     |
 |                                                 |
 |     "First principles methods using CASTEP"     |
 |                                                 |
 |         Zeitschrift fuer Kristallographie       |
 |           220(5-6) pp. 567-570 (2005)           |
 |                                                 |
 | S. J. Clark, M. D. Segall, C. J. Pickard,       |
 | P. J. Hasnip, M. J. Probert, K. Refson,         |
 | M. C. Payne                                     |
 |                                                 |
 |       in all publications arising from          |
 |              your use of CASTEP                 |
 |                                                 |
 +-------------------------------------------------+
 |                                                 |
 |              http://www.castep.org              |
 |                                                 |
 +-------------------------------------------------+
 
 
 This version was compiled for x86_64-rhel7-intel19.0 on Oct 24 2023
 Code version:    a9f326b
 Intel(R) Math Kernel Library Version 2019.0.4 
 Fundamental constants values: CODATA 2018
 
License checkout of MS_castep successful
 
 
 Atomic calculation performed for H: 1s1
 
 Converged in 41 iterations to an ae energy of -12.488 eV
 
 Identity difference: 2.63E-05
 
   ============================================================                
   | Pseudopotential Report - Date of generation 31-03-2024   |                
   ------------------------------------------------------------                
   | Element: H Ionic charge:  1.00 Level of theory: PBE      |                
   | Atomic Solver: Koelling-Harmon                           |                
   |                                                          |                
   |               Reference Electronic Structure             |                
   |         Orbital         Occupation         Energy        |                
   |            1s              1.000           -0.239        |                
   |                                                          |                
   |                 Pseudopotential Definition               |                
   |        Beta     l      e      Rc     scheme   norm       |                
   |          1      0   -0.239   0.599     qc      0         |                
   |          2      0    0.250   0.599     qc      0         |                
   |         loc     1    0.000   0.599     pn      0         |                
   |                                                          |                
   | Augmentation charge Rinner = 0.421                       |                
   | No partial core correction                               |                
   ------------------------------------------------------------                
   | "1|0.6|9|10|15|10UU(qc=8)[]"                             |                
   ------------------------------------------------------------                
   |      Author: Chris J. Pickard, Cambridge University      |                
   ============================================================                
 
 Doing a self consistent calculation for the test configuration
 
 Atomic calculation performed for H: 1s1
 
 Converged in 41 iterations to an ae energy of -12.488 eV
 
 ---------------------------------------
 AE eigenvalue nl 10 =       -0.23860176
 ---------------------------------------
 PS eigenvalue nl 10 =       -0.23857601
 ---------------------------------------
 Maximum eigenvalue error:   2.57E-05
 
 Derived cutoff energies: C=   1 M=   6 F=  10 E=  20
 
 Checking for ghost states up to   1.51185 Ha
 
 No Ghost States Identified
 
 ***************************************
 
 Atomic calculation performed for C: 1s2 2s2 2p2
 
 Converged in 54 iterations to an ae energy of -1027.632 eV
 
 Identity difference: 2.37E-04
 
   ============================================================                
   | Pseudopotential Report - Date of generation 31-03-2024   |                
   ------------------------------------------------------------                
   | Element: C Ionic charge:  4.00 Level of theory: PBE      |                
   | Atomic Solver: Koelling-Harmon                           |                
   |                                                          |                
   |               Reference Electronic Structure             |                
   |         Orbital         Occupation         Energy        |                
   |            2s              2.000           -0.505        |                
   |            2p              2.000           -0.194        |                
   |                                                          |                
   |                 Pseudopotential Definition               |                
   |        Beta     l      e      Rc     scheme   norm       |                
   |          1      0   -0.505   1.395     qc      0         |                
   |          2      0    0.250   1.395     qc      0         |                
   |          3      1   -0.194   1.395     qc      0         |                
   |          4      1    0.250   1.395     qc      0         |                
   |         loc     2    0.000   1.395     pn      0         |                
   |                                                          |                
   | Augmentation charge Rinner = 0.983                       |                
   | Partial core correction Rc = 0.983                       |                
   ------------------------------------------------------------                
   | "2|1.4|11|12|14.7|20UU:21UU(qc=7)[]"                     |                
   ------------------------------------------------------------                
   |      Author: Chris J. Pickard, Cambridge University      |                
   ============================================================                
 
 Doing a self consistent calculation for the test configuration
 
 Atomic calculation performed for C: 1s2 2s2 2p2
 
 Converged in 54 iterations to an ae energy of -1027.632 eV
 
 ---------------------------------------
 AE eigenvalue nl 10 =      -10.04653081
 AE eigenvalue nl 20 =       -0.50533429
 AE eigenvalue nl 21 =       -0.19423807
 ---------------------------------------
 PS eigenvalue nl 20 =       -0.50531853
 PS eigenvalue nl 21 =       -0.19422214
 ---------------------------------------
 Maximum eigenvalue error:   1.59E-05
 
 Derived cutoff energies: C=   6 M=  10 F=  12 E=  16
 
 Checking for ghost states up to   1.47183 Ha
 
 No Ghost States Identified
 
 ***************************************
 
 Atomic calculation performed for N: 1s2 2s2 2p3
 
 Converged in 55 iterations to an ae energy of -1481.742 eV
 
 Identity difference: 2.27E-04
 
   ============================================================                
   | Pseudopotential Report - Date of generation 31-03-2024   |                
   ------------------------------------------------------------                
   | Element: N Ionic charge:  5.00 Level of theory: PBE      |                
   | Atomic Solver: Koelling-Harmon                           |                
   |                                                          |                
   |               Reference Electronic Structure             |                
   |         Orbital         Occupation         Energy        |                
   |            2s              2.000           -0.683        |                
   |            2p              3.000           -0.261        |                
   |                                                          |                
   |                 Pseudopotential Definition               |                
   |        Beta     l      e      Rc     scheme   norm       |                
   |          1      0   -0.683   1.100     qc      0         |                
   |          2      0    0.250   1.100     qc      0         |                
   |          3      1   -0.261   1.100     qc      0         |                
   |          4      1    0.250   1.100     qc      0         |                
   |         loc     2    0.000   1.100     pn      0         |                
   |                                                          |                
   | Augmentation charge Rinner = 0.769                       |                
   | Partial core correction Rc = 0.769                       |                
   ------------------------------------------------------------                
   | "2|1.1|12|16|19|20UU:21UU(qc=7)[]"                       |                
   ------------------------------------------------------------                
   |      Author: Chris J. Pickard, Cambridge University      |                
   ============================================================                
 
 Doing a self consistent calculation for the test configuration
 
 Atomic calculation performed for N: 1s2 2s2 2p3
 
 Converged in 55 iterations to an ae energy of -1481.742 eV
 
 ---------------------------------------
 AE eigenvalue nl 10 =      -14.13820921
 AE eigenvalue nl 20 =       -0.68290611
 AE eigenvalue nl 21 =       -0.26054797
 ---------------------------------------
 PS eigenvalue nl 20 =       -0.68291221
 PS eigenvalue nl 21 =       -0.26051708
 ---------------------------------------
 Maximum eigenvalue error:   3.09E-05
 
 Derived cutoff energies: C=  10 M=  15 F=  18 E=  23
 
 Checking for ghost states up to   1.48495 Ha
 
 No Ghost States Identified
 
 ***************************************
 
 Atomic calculation performed for O: 1s2 2s2 2p4
 
 Converged in 61 iterations to an ae energy of -2040.902 eV
 
 Identity difference: 4.10E-04
 
   ============================================================                
   | Pseudopotential Report - Date of generation 31-03-2024   |                
   ------------------------------------------------------------                
   | Element: O Ionic charge:  6.00 Level of theory: PBE      |                
   | Atomic Solver: Koelling-Harmon                           |                
   |                                                          |                
   |               Reference Electronic Structure             |                
   |         Orbital         Occupation         Energy        |                
   |            2s              2.000           -0.881        |                
   |            2p              4.000           -0.332        |                
   |                                                          |                
   |                 Pseudopotential Definition               |                
   |        Beta     l      e      Rc     scheme   norm       |                
   |          1      0   -0.881   1.100     qc      0         |                
   |          2      0    0.250   1.100     qc      0         |                
   |          3      1   -0.332   1.100     qc      0         |                
   |          4      1    0.250   1.100     qc      0         |                
   |         loc     2    0.000   1.100     pn      0         |                
   |                                                          |                
   | Augmentation charge Rinner = 0.769                       |                
   | Partial core correction Rc = 0.769                       |                
   ------------------------------------------------------------                
   | "2|1.1|14|18|21|20UU:21UU(qc=7)[]"                       |                
   ------------------------------------------------------------                
   |      Author: Chris J. Pickard, Cambridge University      |                
   ============================================================                
 
 Doing a self consistent calculation for the test configuration
 
 Atomic calculation performed for O: 1s2 2s2 2p4
 
 Converged in 61 iterations to an ae energy of -2040.902 eV
 
 ---------------------------------------
 AE eigenvalue nl 10 =      -18.91475256
 AE eigenvalue nl 20 =       -0.88057101
 AE eigenvalue nl 21 =       -0.33186952
 ---------------------------------------
 PS eigenvalue nl 20 =       -0.88059206
 PS eigenvalue nl 21 =       -0.33182157
 ---------------------------------------
 Maximum eigenvalue error:   4.80E-05
 
 Derived cutoff energies: C=  14 M=  17 F=  20 E=  22
 
 Checking for ghost states up to   1.49452 Ha
 
 No Ghost States Identified
 
 ***************************************
 
 Atomic calculation performed for Si: 1s2 2s2 2p6 3s2 3p2
 
 Converged in 54 iterations to an ae energy of -7886.857 eV
 
 Identity difference: 1.35E-04
 
   ============================================================                
   | Pseudopotential Report - Date of generation 31-03-2024   |                
   ------------------------------------------------------------                
   | Element: Si Ionic charge:  4.00 Level of theory: PBE     |                
   | Atomic Solver: Koelling-Harmon                           |                
   |                                                          |                
   |               Reference Electronic Structure             |                
   |         Orbital         Occupation         Energy        |                
   |            3s              2.000           -0.397        |                
   |            3p              2.000           -0.150        |                
   |                                                          |                
   |                 Pseudopotential Definition               |                
   |        Beta     l      e      Rc     scheme   norm       |                
   |          1      0   -0.397   1.797     qc      0         |                
   |          2      0    0.250   1.797     qc      0         |                
   |          3      1   -0.150   1.797     qc      0         |                
   |          4      1    0.250   1.797     qc      0         |                
   |          5      2    0.000   1.797     qc      0         |                
   |          6      2    0.250   1.797     qc      0         |                
   |         loc     3    0.000   1.797     pn      0         |                
   |                                                          |                
   | Augmentation charge Rinner = 1.255                       |                
   | Partial core correction Rc = 1.255                       |                
   ------------------------------------------------------------                
   | "3|1.8|3.6|5|7|30UU:31UU:32UU[]"                         |                
   ------------------------------------------------------------                
   |      Author: Chris J. Pickard, Cambridge University      |                
   ============================================================                
 
 Doing a self consistent calculation for the test configuration
 
 Atomic calculation performed for Si: 1s2 2s2 2p6 3s2 3p2
 
 Converged in 54 iterations to an ae energy of -7886.857 eV
 
 ---------------------------------------
 AE eigenvalue nl 10 =      -65.63192903
 AE eigenvalue nl 20 =       -5.12654326
 AE eigenvalue nl 21 =       -3.51173659
 AE eigenvalue nl 30 =       -0.39736430
 AE eigenvalue nl 31 =       -0.14998156
 ---------------------------------------
 PS eigenvalue nl 30 =       -0.39734922
 PS eigenvalue nl 31 =       -0.14996719
 ---------------------------------------
 Maximum eigenvalue error:   1.51E-05
 
 Derived cutoff energies: C=   1 M=   3 F=   6 E=   6
 
 Checking for ghost states up to   1.41161 Ha
 
 No Ghost States Identified
 
 ***************************************
 
 Pseudo atomic calculation performed for H 1s1
 
 Converged in 13 iterations to a total energy of -12.4790 eV
 
 Pseudo atomic calculation performed for C 2s2 2p2
 
 Converged in 17 iterations to a total energy of -148.5208 eV
 
 Pseudo atomic calculation performed for N 2s2 2p3
 
 Converged in 21 iterations to a total energy of -268.1820 eV
 
 Pseudo atomic calculation performed for O 2s2 2p4
 
 Converged in 23 iterations to a total energy of -432.6536 eV
 
 Pseudo atomic calculation performed for Si 3s2 3p2
 
 Converged in 11 iterations to a total energy of -165.0683 eV
 Calculation parallelised over 48 processes.
 Data is distributed by G-vector(48-way)

 ************************************ Title ************************************
 CASTEP calculation from BIOVIA Materials Studio 2024

 ***************************** General Parameters ******************************
  
 output verbosity                               : normal  (1)
 write checkpoint data to                       : Conf_0004.check
 type of calculation                            : geometry optimization
 stress calculation                             : off
 density difference calculation                 : off
 electron localisation func (ELF) calculation   : off
 Hirshfeld analysis                             : on
 polarisation (Berry phase) analysis            : off
 molecular orbital projected DOS                : off
 deltaSCF calculation                           : off
 unlimited duration calculation
 timing information                             : on
 memory usage estimate                          : on
 write extra output files                       : on
 write final potential to formatted file        : off
 write final density to formatted file          : off
 write BibTeX reference list                    : on
 write OTFG pseudopotential files               : on
 write electrostatic potential file             : on
 write bands file                               : on
 checkpoint writing                             : both castep_bin and check files
  
 output         length unit                     : A
 output           mass unit                     : amu
 output           time unit                     : ps
 output         charge unit                     : e
 output           spin unit                     : hbar/2
 output         energy unit                     : eV
 output          force unit                     : eV/A
 output       velocity unit                     : A/ps
 output       pressure unit                     : GPa
 output     inv_length unit                     : 1/A
 output      frequency unit                     : cm-1
 output force constant unit                     : eV/A**2
 output         volume unit                     : A**3
 output   IR intensity unit                     : (D/A)**2/amu
 output         dipole unit                     : D
 output         efield unit                     : eV/A/e
 output        entropy unit                     : J/mol/K
 output    efield chi2 unit                     : pm/V
  
 wavefunctions paging                           : none
 random number generator seed                   :    5024803
 data distribution                              : optimal for this architecture
 optimization strategy                          : balance speed and memory

 *********************** Exchange-Correlation Parameters ***********************
  
 using functional                               : Perdew Burke Ernzerhof
 relativistic treatment                         : Koelling-Harmon
 DFT+D: Semi-empirical dispersion correction    : on
 SEDC with                                      : G06 correction scheme

 ************************* Pseudopotential Parameters **************************
  
 pseudopotential representation                 : reciprocal space
 <beta|phi> representation                      : reciprocal space
 spin-orbit coupling                            : off

 **************************** Basis Set Parameters *****************************
  
 plane wave basis set cut-off                   :   600.0000   eV
 size of standard grid                          :     1.5000
 size of   fine   gmax                          :    18.8237   1/A
 largest prime factor in FFT                    :          5
 finite basis set correction                    : none

 **************************** Electronic Parameters ****************************
  
 number of  electrons                           :  74.00    
 net charge of system                           : +1.000    
 treating system as non-spin-polarized
 number of bands                                :         37

 ********************* Electronic Minimization Parameters **********************
  
 Method: Treating system as non-metallic,
         and number of  SD  steps               :          1
         and number of  CG  steps               :          4
  
 total energy / atom convergence tol.           : 0.2000E-05   eV
 eigen-energy convergence tolerance             : 0.1000E-05   eV
 max force / atom convergence tol.              : ignored
 convergence tolerance window                   :          3   cycles
 max. number of SCF cycles                      :        100
 periodic dipole correction                     : NONE

 ************************** Density Mixing Parameters **************************
  
 density-mixing scheme                          : Pulay
 max. length of mixing history                  :         20
 charge density mixing amplitude                : 0.5000    
 cut-off energy for mixing                      :  600.0       eV
 charge density mixing g-vector                 :  1.500       1/A

 *********************** Population Analysis Parameters ************************
  
 Population analysis with cutoff                :  3.000       A
 Population analysis output                     : summary and pdos components

 ********************** Geometry Optimization Parameters ***********************
  
 optimization method                            : LBFGS
 max. no. of LBFGS updates                      : unbounded
 preconditioned LBFGS is activated
 preconditioner type                            : EXP
     stabilization constant                     :     0.1000
     parameter A                                :     3.0000
     nearest neighbor distance                  : automatic
     cut-off distance                           : automatic
     parameter mu                               : automatic
 variable cell method                           : fixed basis quality
 max. number of steps                           :        300
 estimated bulk modulus                         :  500.0       GPa
 estimated <frequency>                          :  1668.       cm-1
 geom line minimiser                            : on
 with line minimiser tolerance                  :     0.4000
 total energy convergence tolerance             : 0.2000E-04   eV/atom
        max ionic |force| tolerance             : 0.5000E-01   eV/A
 max ionic |displacement| tolerance             : 0.2000E-02   A
   max |stress component| tolerance             : 0.1000       GPa
 convergence tolerance window                   :          2   steps
 backup results every                           :          5   steps
 write geom trajectory file                     : on

 *******************************************************************************
  
 
                           -------------------------------
                                      Unit Cell
                           -------------------------------
        Real Lattice(A)                      Reciprocal Lattice(1/A)
    13.4840002    -0.0000006    -0.0000006        0.465973392   0.000000000   0.000000000
     0.0000000    20.4006996    -0.0000009        0.000000013   0.307988717   0.000000000
     0.0000000     0.0000000    45.0000000        0.000000006   0.000000006   0.139626340
 
                       Lattice parameters(A)       Cell Angles
                    a =     13.484000          alpha =   90.000003
                    b =     20.400700          beta  =   90.000003
                    c =     45.000000          gamma =   90.000003
 
                       Current cell volume =         12378.736702       A**3
                                   density =             0.015698   AMU/A**3
                                           =             0.026068     g/cm^3
 
                           -------------------------------
                                     Cell Contents
                           -------------------------------
                         Total number of ions in cell =   32
                      Total number of species in cell =    5
                        Max number of any one species =   20
 
            xxxxxxxxxxxxxxxxxxxxxxxxxxxxxxxxxxxxxxxxxxxxxxxxxxxxxxxxxxxx
            x  Element    Atom        Fractional coordinates of atoms  x
            x            Number           u          v          w      x
            x----------------------------------------------------------x
            x  H            1         0.644499   0.461537   0.537834   x 
            x  H            2         0.660007   0.545264   0.549451   x 
            x  H            3         0.460773   0.470037   0.547897   x 
            x  H            4         0.475762   0.552755   0.559383   x 
            x  H            5         0.732711   0.568374   0.503472   x 
            x  H            6         0.714976   0.485585   0.490854   x 
            x  H            7         0.740514   0.578440   0.451128   x 
            x  H            8         0.620472   0.606155   0.459544   x 
            x  H            9         0.676130   0.469204   0.434823   x 
            x  H           10         0.628777   0.535260   0.413911   x 
            x  H           11         0.455248   0.401529   0.473515   x 
            x  H           12         0.439358   0.453458   0.397302   x 
            x  H           13         0.353601   0.541863   0.443246   x 
            x  H           14         0.536513   0.500602   0.498015   x 
            x  H           15         0.550746   0.577848   0.508192   x 
            x  H           16         0.570183   0.433030   0.589867   x 
            x  H           17         0.585520   0.515490   0.601319   x 
            x  H           18         0.455089   0.459767   0.631706   x 
            x  H           19         0.386000   0.441652   0.599048   x 
            x  H           20         0.401711   0.524555   0.610649   x 
            x  C            1         0.607482   0.509549   0.539911   x 
            x  C            2         0.513016   0.504600   0.558449   x 
            x  C            3         0.683673   0.535499   0.490714   x 
            x  C            4         0.667169   0.561687   0.459133   x 
            x  C            5         0.626238   0.512024   0.436088   x 
            x  C            6         0.533469   0.481445   0.590308   x 
            x  C            7         0.438941   0.476585   0.608931   x 
            x  N            1         0.582920   0.533111   0.507812   x 
            x  O            1         0.447056   0.437415   0.416952   x 
            x  O            2         0.421669   0.545711   0.448419   x 
            x  O            3         0.493596   0.440768   0.473933   x 
            x  Si           1         0.494264   0.482976   0.442922   x 
            xxxxxxxxxxxxxxxxxxxxxxxxxxxxxxxxxxxxxxxxxxxxxxxxxxxxxxxxxxxx
 
 
                         No user defined ionic velocities
 
                           -------------------------------
                                   Details of Species
                           -------------------------------
 
                               Mass of species in AMU
                                    H    1.0080000
                                    C   12.0109997
                                    N   14.0070000
                                    O   15.9989996
                                    Si   28.0849991
 
                          Electric Quadrupole Moment (Barn)
                                    H    0.0028600 Isotope  2
                                    C    0.0332700 Isotope 11
                                    N    0.0204400 Isotope 14
                                    O   -0.0255800 Isotope 17
                                    Si    1.0000000 No Isotope Defined
 
                          Files used for pseudopotentials:
                                    H 1|0.6|9|10|15|10UU(qc=8)[]
                                    C 2|1.4|11|12|14.7|20UU:21UU(qc=7)[]
                                    N 2|1.1|12|16|19|20UU:21UU(qc=7)[]
                                    O 2|1.1|14|18|21|20UU:21UU(qc=7)[]
                                    Si 3|1.8|3.6|5|7|30UU:31UU:32UU[]
 
                           -------------------------------
                              k-Points For BZ Sampling
                           -------------------------------
                       MP grid size for SCF calculation is  1  1  1
                            with an offset of   0.000  0.000  0.000
                       Number of kpoints used =             1
 
                           -------------------------------
                               Symmetry and Constraints
                           -------------------------------
 
                      Maximum deviation from symmetry =  0.00000         ANG
 
                      Number of symmetry operations   =           1
                      Number of nonlinear constraints =           3
         There are no ionic constraints specified or generated for this cell
                      Point group of crystal =     1: C1, 1, 1
                      Space group of crystal =     1: P1, P 1
 
             Set iprint > 1 for details on symmetry rotations/translations
 
                         Centre of mass is NOT constrained
 
                         Number of cell constraints= 6
                         Cell constraints are:  0 0 0 0 0 0
 
                         External pressure/stress (GPa)
                          0.00000   0.00000   0.00000
                                    0.00000   0.00000
                                              0.00000
 
                                --------------------
                                  DFT-D parameters
                                --------------------
 
                          Dispersion-correction scheme : G06       
                        Parameter s6 :   0.750000 (default)
                        Parameter d  :  20.000000 (default)
 
        xxxxxxxxxxxxxxxxxxxxxxxxxxxxxxxxxxxxxxxxxxxxxxxxxxxxxxxxxxxxxxxxxxxx
        x              Atomic DFT-D parameters                             x
        x  Species      C6            R0                                   x
        x               eV A^6        Ang                                  x
        x------------------------------------------------------------------x
        x  H             1.4510       1.0010   (default)                   x
        x  C            18.1375       1.4520   (default)                   x
        x  N            12.7481       1.3970   (default)                   x
        x  O             7.2550       1.3420   (default)                   x
        x  Si           95.6622       1.7160   (default)                   x
        xxxxxxxxxxxxxxxxxxxxxxxxxxxxxxxxxxxxxxxxxxxxxxxxxxxxxxxxxxxxxxxxxxxx
 
 
+---------------- MEMORY AND SCRATCH DISK ESTIMATES PER PROCESS --------------+
|                                                     Memory          Disk    |
| Baseline code, static data and system overhead     6530.0 MB         0.0 MB |
| BLAS internal memory storage                          0.0 MB         0.0 MB |
| Model and support data                              540.6 MB         0.0 MB |
| Electronic energy minimisation requirements          31.8 MB         0.0 MB |
| Force calculation requirements                        6.8 MB         0.0 MB |
|                                               ----------------------------- |
| Approx. total storage required per process         7102.3 MB         0.0 MB |
|                                                                             |
| Requirements will fluctuate during execution and may exceed these estimates |
+-----------------------------------------------------------------------------+
Calculating approximate eigenstates for fixed initial Hamiltonian
Cut-off for approx. calculation is  119.774 eV
Improving approx. states at cut-off of  300.000 eV
Resetting cut-off to  600.000 eV
Calculating total energy with cut-off of  600.000 eV.
------------------------------------------------------------------------ <-- SCF
SCF loop      Energy                           Energy gain       Timer   <-- SCF
                                               per atom          (sec)   <-- SCF
------------------------------------------------------------------------ <-- SCF
Initial  -2.92756894E+003                                         32.87  <-- SCF
      1  -3.20270209E+003                    8.59791069E+000      33.70  <-- SCF
      2  -3.20294609E+003                    7.62496699E-003      34.50  <-- SCF
      3  -3.19294223E+003                   -3.12620401E-001      35.66  <-- SCF
      4  -3.19180647E+003                   -3.54924827E-002      36.84  <-- SCF
      5  -3.19129195E+003                   -1.60787310E-002      37.88  <-- SCF
      6  -3.19122585E+003                   -2.06567173E-003      39.20  <-- SCF
      7  -3.19118826E+003                   -1.17479293E-003      40.24  <-- SCF
      8  -3.19118419E+003                   -1.27225222E-004      41.38  <-- SCF
      9  -3.19117574E+003                   -2.64152179E-004      42.40  <-- SCF
     10  -3.19115986E+003                   -4.95972348E-004      43.55  <-- SCF
     11  -3.19113590E+003                   -7.48837252E-004      44.59  <-- SCF
     12  -3.19105746E+003                   -2.45115524E-003      45.60  <-- SCF
     13  -3.19097907E+003                   -2.44968048E-003      46.68  <-- SCF
     14  -3.19091582E+003                   -1.97674042E-003      47.72  <-- SCF
     15  -3.19086404E+003                   -1.61815218E-003      48.75  <-- SCF
     16  -3.19083608E+003                   -8.73547131E-004      49.75  <-- SCF
     17  -3.19081062E+003                   -7.95637827E-004      50.72  <-- SCF
     18  -3.19077572E+003                   -1.09087772E-003      51.73  <-- SCF
     19  -3.19074289E+003                   -1.02570146E-003      52.81  <-- SCF
     20  -3.19072302E+003                   -6.20964917E-004      53.85  <-- SCF
     21  -3.19069960E+003                   -7.31961280E-004      54.81  <-- SCF
     22  -3.19068514E+003                   -4.51896897E-004      55.78  <-- SCF
     23  -3.19068560E+003                    1.43319612E-005      56.80  <-- SCF
     24  -3.19068775E+003                    6.73343551E-005      57.71  <-- SCF
     25  -3.19069174E+003                    1.24613222E-004      58.69  <-- SCF
     26  -3.19069719E+003                    1.70438949E-004      59.67  <-- SCF
     27  -3.19069904E+003                    5.77499177E-005      60.49  <-- SCF
     28  -3.19070330E+003                    1.33112327E-004      61.36  <-- SCF
     29  -3.19070636E+003                    9.54362081E-005      62.17  <-- SCF
     30  -3.19070862E+003                    7.06234561E-005      62.97  <-- SCF
     31  -3.19071089E+003                    7.10055534E-005      63.78  <-- SCF
     32  -3.19071233E+003                    4.52194234E-005      64.59  <-- SCF
     33  -3.19071347E+003                    3.55311374E-005      65.40  <-- SCF
     34  -3.19071428E+003                    2.51577686E-005      66.21  <-- SCF
     35  -3.19071504E+003                    2.37819085E-005      67.01  <-- SCF
     36  -3.19071545E+003                    1.28270619E-005      67.82  <-- SCF
     37  -3.19071600E+003                    1.72682242E-005      68.63  <-- SCF
     38  -3.19071663E+003                    1.95249263E-005      69.44  <-- SCF
     39  -3.19071690E+003                    8.57716881E-006      70.25  <-- SCF
     40  -3.19071731E+003                    1.28659544E-005      71.07  <-- SCF
     41  -3.19071757E+003                    8.10471080E-006      71.88  <-- SCF
     42  -3.19071781E+003                    7.44939725E-006      72.69  <-- SCF
     43  -3.19071796E+003                    4.55034092E-006      73.53  <-- SCF
     44  -3.19071807E+003                    3.55479825E-006      74.34  <-- SCF
     45  -3.19071818E+003                    3.50798049E-006      75.15  <-- SCF
     46  -3.19071824E+003                    1.73363575E-006      75.96  <-- SCF
     47  -3.19071829E+003                    1.66885258E-006      76.77  <-- SCF
     48  -3.19071832E+003                    7.89233659E-007      77.57  <-- SCF
     49  -3.19071835E+003                    1.07952458E-006      78.38  <-- SCF
------------------------------------------------------------------------ <-- SCF
 
Final energy =  -3190.718349999     eV
(energy not corrected for finite basis set)
 
(SEDC) Total Energy Correction : -0.805063E+00 eV

Dispersion corrected final energy* =  -3191.523413298     eV

Writing analysis data to Conf_0004.castep_bin

Writing model to Conf_0004.check

WARNING - nonlinear constraints cannot be used with LBFGS algorithm
        - consider setting geom_method=DELOCALIZED
 
        => Turning nonlinear constraints OFF
 
+---------------- MEMORY AND SCRATCH DISK ESTIMATES PER PROCESS --------------+
|                                                     Memory          Disk    |
| Model and support data                              550.1 MB         0.0 MB |
| Electronic energy minimisation requirements          31.8 MB         0.0 MB |
| Geometry minimisation requirements                   34.8 MB         0.0 MB |
|                                               ----------------------------- |
| Approx. total storage required per process          616.7 MB         0.0 MB |
|                                                                             |
| Requirements will fluctuate during execution and may exceed these estimates |
+-----------------------------------------------------------------------------+
 
 
 ************************************** Forces **************************************
 *                                                                                  *
 *                           Cartesian components (eV/A)                            *
 * -------------------------------------------------------------------------------- *
 *                         x                    y                    z              *
 *                                                                                  *
 * H               1     -0.07851              0.17542             -0.16145         *
 * H               2     -0.10449             -0.05225             -0.18009         *
 * H               3      0.04979              0.01456             -0.02226         *
 * H               4      0.03952              0.02520             -0.03779         *
 * H               5     -0.22263             -0.09887             -0.01054         *
 * H               6     -0.26188              0.08519              0.07561         *
 * H               7     -0.12910             -0.01005              0.10418         *
 * H               8      0.01890             -0.10594              0.09566         *
 * H               9     -0.13721             -0.01133              0.03931         *
 * H              10     -0.07962             -0.05573              0.13157         *
 * H              11     -0.51143             -0.81972              0.22575         *
 * H              12     -0.10917              0.25612             -0.99487         *
 * H              13     -0.94298             -0.03795             -0.21375         *
 * H              14     -0.68926             -0.91494             -0.36693         *
 * H              15     -0.22144              0.64249             -0.01045         *
 * H              16      0.01848              0.12210             -0.08768         *
 * H              17     -0.01561             -0.04039             -0.11069         *
 * H              18     -0.00197              0.05466             -0.17659         *
 * H              19      0.05168              0.06733              0.03015         *
 * H              20      0.03439             -0.07488              0.00680         *
 * C               1     -0.83922              0.24650             -0.26092         *
 * C               2     -0.01400             -0.03455              0.05439         *
 * C               3     -1.13305              0.51354             -0.39426         *
 * C               4      0.46543             -0.04647             -0.27890         *
 * C               5     -0.48821              0.07286              0.40381         *
 * C               6      0.15725             -0.05687              0.16912         *
 * C               7     -0.15154              0.01787              0.04844         *
 * N               1      3.22919             -0.45791              1.43564         *
 * O               1      0.10254             -0.90058              0.79223         *
 * O               2      0.98308              0.93543              0.41224         *
 * O               3      0.51658             -0.09163              0.46886         *
 * Si              1      0.46448              0.58081             -1.18661         *
 *                                                                                  *
 ************************************************************************************
 EXP precond LBFGS => estimated nearest neighbor distance :  1.623       A
 EXP precond LBFGS => estimated cutoff distance :  3.246       A
 doing test perturbation to get energy scale for EXP preconditioner
 
                           -------------------------------
                                     Cell Contents
                           -------------------------------
 
            xxxxxxxxxxxxxxxxxxxxxxxxxxxxxxxxxxxxxxxxxxxxxxxxxxxxxxxxxxxxxxxxx
            x  Element         Atom        Fractional coordinates of atoms  x
            x                 Number           u          v          w      x
            x---------------------------------------------------------------x
            x  H                 1         0.645697   0.462153   0.538104   x
            x  H                 2         0.661199   0.545630   0.549709   x
            x  H                 3         0.461891   0.470631   0.548156   x
            x  H                 4         0.476896   0.553094   0.559630   x
            x  H                 5         0.733853   0.568657   0.503774   x
            x  H                 6         0.716133   0.486138   0.491166   x
            x  H                 7         0.741648   0.578686   0.451467   x
            x  H                 8         0.621675   0.606297   0.459878   x
            x  H                 9         0.677315   0.469801   0.435170   x
            x  H                10         0.629979   0.535660   0.414265   x
            x  H                11         0.456360   0.402265   0.473840   x
            x  H                12         0.440449   0.454094   0.397660   x
            x  H                13         0.354555   0.542240   0.443588   x
            x  H                14         0.537696   0.501112   0.498321   x
            x  H                15         0.551937   0.578096   0.508491   x
            x  H                16         0.571381   0.433710   0.590079   x
            x  H                17         0.586722   0.515954   0.601516   x
            x  H                18         0.456200   0.460388   0.631862   x
            x  H                19         0.387012   0.442315   0.599248   x
            x  H                20         0.402748   0.524990   0.610834   x
            x  C                 1         0.608686   0.510032   0.540179   x
            x  C                 2         0.514184   0.505098   0.558697   x
            x  C                 3         0.684854   0.535897   0.491026   x
            x  C                 4         0.668358   0.561995   0.459467   x
            x  C                 5         0.627441   0.512499   0.436433   x
            x  C                 6         0.534651   0.482009   0.590518   x
            x  C                 7         0.440032   0.477163   0.609117   x
            x  N                 1         0.584121   0.533518   0.508110   x
            x  O                 1         0.448157   0.438086   0.417305   x
            x  O                 2         0.422736   0.546075   0.448759   x
            x  O                 3         0.494748   0.441432   0.474258   x
            x  Si                1         0.495417   0.483537   0.443264   x
            xxxxxxxxxxxxxxxxxxxxxxxxxxxxxxxxxxxxxxxxxxxxxxxxxxxxxxxxxxxxxxxxx
 
 
------------------------------------------------------------------------ <-- SCF
SCF loop      Energy                           Energy gain       Timer   <-- SCF
                                               per atom          (sec)   <-- SCF
------------------------------------------------------------------------ <-- SCF
Initial  -3.19274607E+003                                         80.44  <-- SCF
      1  -3.19069506E+003                   -6.40939343E-002      81.26  <-- SCF
      2  -3.19071832E+003                    7.27017751E-004      82.46  <-- SCF
      3  -3.19069370E+003                   -7.69537893E-004      83.51  <-- SCF
      4  -3.19070945E+003                    4.92220840E-004      84.54  <-- SCF
      5  -3.19070983E+003                    1.18978492E-005      85.32  <-- SCF
      6  -3.19071005E+003                    6.79309863E-006      86.10  <-- SCF
      7  -3.19071012E+003                    2.17375041E-006      86.88  <-- SCF
      8  -3.19071016E+003                    1.35673648E-006      87.67  <-- SCF
      9  -3.19071021E+003                    1.38759452E-006      88.48  <-- SCF
     10  -3.19071022E+003                    4.70383713E-007      89.27  <-- SCF
------------------------------------------------------------------------ <-- SCF
 
Final energy =  -3190.710221372     eV
(energy not corrected for finite basis set)
 
(SEDC) Total Energy Correction : -0.805277E+00 eV

Dispersion corrected final energy* =  -3191.515497891     eV
 
 ************************************** Forces **************************************
 *                                                                                  *
 *                           Cartesian components (eV/A)                            *
 * -------------------------------------------------------------------------------- *
 *                         x                    y                    z              *
 *                                                                                  *
 * H               1     -0.05645              0.09450             -0.16127         *
 * H               2     -0.07924             -0.00305             -0.15264         *
 * H               3      0.03540             -0.01860             -0.04481         *
 * H               4     -0.00352              0.11020             -0.05024         *
 * H               5     -0.21036             -0.04538              0.00732         *
 * H               6     -0.20779             -0.01475              0.08895         *
 * H               7     -0.08128              0.00896              0.08897         *
 * H               8     -0.01888             -0.01923              0.09925         *
 * H               9     -0.10779             -0.08213              0.04140         *
 * H              10     -0.05911             -0.02471              0.10024         *
 * H              11     -0.52506             -0.86080              0.22371         *
 * H              12     -0.11893              0.26054             -1.00881         *
 * H              13     -0.85637             -0.03102             -0.19435         *
 * H              14     -0.71624             -0.96566             -0.37829         *
 * H              15     -0.27469              0.76585             -0.00659         *
 * H              16      0.03262              0.06510             -0.08802         *
 * H              17     -0.00641             -0.00939             -0.09155         *
 * H              18      0.00762              0.03475             -0.12982         *
 * H              19      0.05201              0.04259              0.02404         *
 * H              20      0.00945             -0.00750              0.01717         *
 * C               1     -0.90337              0.25974             -0.26914         *
 * C               2      0.03192             -0.06117              0.03953         *
 * C               3     -1.18829              0.53844             -0.40530         *
 * C               4      0.49437             -0.04990             -0.27404         *
 * C               5     -0.53550              0.06376              0.40384         *
 * C               6      0.10141             -0.05233              0.18306         *
 * C               7     -0.11222             -0.01438              0.02515         *
 * N               1      3.26612             -0.55121              1.42776         *
 * O               1      0.09860             -0.93652              0.77139         *
 * O               2      0.88342              1.01040              0.41331         *
 * O               3      0.53847             -0.08525              0.51112         *
 * Si              1      0.51007              0.57812             -1.21136         *
 *                                                                                  *
 ************************************************************************************
 EXP precond LBFGS => estimated parameter mu :  1.571       eV/A**2
 LBFGS: finished iteration     0 with enthalpy= -3.19152341E+003 eV
  
 +-----------+-----------------+-----------------+------------+-----+ <-- LBFGS
 | Parameter |      value      |    tolerance    |    units   | OK? | <-- LBFGS
 +-----------+-----------------+-----------------+------------+-----+ <-- LBFGS
 |  dE/ion   |   0.000000E+000 |   2.000000E-005 |         eV | No  | <-- LBFGS
 |  |F|max   |   3.606916E+000 |   5.000000E-002 |       eV/A | No  | <-- LBFGS
 |  |dR|max  |   5.177142E-015 |   2.000000E-003 |          A | No  | <-- LBFGS
 +-----------+-----------------+-----------------+------------+-----+ <-- LBFGS
  

================================================================================
 Starting LBFGS iteration          1 ...
================================================================================
  
 +------------+-------------+-------------+-----------------+ <-- min LBFGS
 |    Step    |   lambda    |   F.delta'  |    enthalpy     | <-- min LBFGS
 +------------+-------------+-------------+-----------------+ <-- min LBFGS
 |  previous  |    0.000000 |    2.489777 |    -3191.523413 | <-- min LBFGS
 +------------+-------------+-------------+-----------------+ <-- min LBFGS
  

--------------------------------------------------------------------------------
 LBFGS: starting iteration         1 with trial guess (lambda=  0.970595)
--------------------------------------------------------------------------------
 
                           -------------------------------
                                     Cell Contents
                           -------------------------------
 
            xxxxxxxxxxxxxxxxxxxxxxxxxxxxxxxxxxxxxxxxxxxxxxxxxxxxxxxxxxxxxxxxx
            x  Element         Atom        Fractional coordinates of atoms  x
            x                 Number           u          v          w      x
            x---------------------------------------------------------------x
            x  H                 1         0.643071   0.463117   0.537606   x
            x  H                 2         0.658445   0.545861   0.549187   x
            x  H                 3         0.462169   0.470782   0.547892   x
            x  H                 4         0.477116   0.553625   0.559352   x
            x  H                 5         0.727313   0.568732   0.504017   x
            x  H                 6         0.709157   0.486658   0.491604   x
            x  H                 7         0.736440   0.578548   0.452040   x
            x  H                 8         0.618719   0.605844   0.460435   x
            x  H                 9         0.669984   0.469310   0.435857   x
            x  H                10         0.623450   0.535114   0.415067   x
            x  H                11         0.454491   0.389211   0.475341   x
            x  H                12         0.441336   0.449283   0.392164   x
            x  H                13         0.349749   0.549449   0.441755   x
            x  H                14         0.538623   0.495643   0.498770   x
            x  H                15         0.555506   0.579593   0.509607   x
            x  H                16         0.571297   0.434766   0.589436   x
            x  H                17         0.586369   0.516378   0.600833   x
            x  H                18         0.455685   0.461364   0.630892   x
            x  H                19         0.387041   0.443282   0.598753   x
            x  H                20         0.402611   0.525441   0.610298   x
            x  C                 1         0.604682   0.510769   0.539810   x
            x  C                 2         0.513851   0.505335   0.558500   x
            x  C                 3         0.676674   0.537173   0.491022   x
            x  C                 4         0.665776   0.561719   0.459590   x
            x  C                 5         0.619943   0.512329   0.437360   x
            x  C                 6         0.534956   0.482466   0.590204   x
            x  C                 7         0.439202   0.477926   0.608580   x
            x  N                 1         0.596984   0.531286   0.510321   x
            x  O                 1         0.450362   0.429713   0.415115   x
            x  O                 2         0.428740   0.555509   0.447925   x
            x  O                 3         0.498550   0.433009   0.475646   x
            x  Si                1         0.499792   0.484543   0.439749   x
            xxxxxxxxxxxxxxxxxxxxxxxxxxxxxxxxxxxxxxxxxxxxxxxxxxxxxxxxxxxxxxxxx
 
 
------------------------------------------------------------------------ <-- SCF
SCF loop      Energy                           Energy gain       Timer   <-- SCF
                                               per atom          (sec)   <-- SCF
------------------------------------------------------------------------ <-- SCF
Initial  -3.20636680E+003                                         90.64  <-- SCF
      1  -3.18483589E+003                   -6.72840929E-001      91.48  <-- SCF
      2  -3.18864369E+003                    1.18993786E-001      92.79  <-- SCF
      3  -3.18783272E+003                   -2.53428293E-002      93.96  <-- SCF
      4  -3.18794121E+003                    3.39015194E-003      95.12  <-- SCF
      5  -3.18799174E+003                    1.57920024E-003      96.21  <-- SCF
      6  -3.18799379E+003                    6.39114215E-005      97.39  <-- SCF
      7  -3.18799380E+003                    3.49199526E-007      98.41  <-- SCF
      8  -3.18799402E+003                    6.98845291E-006      99.39  <-- SCF
      9  -3.18799432E+003                    9.31553165E-006     100.36  <-- SCF
     10  -3.18799459E+003                    8.52896997E-006     101.34  <-- SCF
     11  -3.18799500E+003                    1.28653716E-005     102.21  <-- SCF
     12  -3.18799544E+003                    1.36141339E-005     103.06  <-- SCF
     13  -3.18799580E+003                    1.12611907E-005     103.93  <-- SCF
     14  -3.18799626E+003                    1.44036493E-005     104.74  <-- SCF
     15  -3.18799644E+003                    5.52389610E-006     105.56  <-- SCF
     16  -3.18799686E+003                    1.32928872E-005     106.38  <-- SCF
     17  -3.18799714E+003                    8.84344096E-006     107.20  <-- SCF
     18  -3.18799759E+003                    1.40400458E-005     108.02  <-- SCF
     19  -3.18799783E+003                    7.27233848E-006     108.84  <-- SCF
     20  -3.18799799E+003                    5.24087306E-006     109.67  <-- SCF
     21  -3.18799815E+003                    4.98922927E-006     110.49  <-- SCF
     22  -3.18799825E+003                    3.10999474E-006     111.32  <-- SCF
     23  -3.18799827E+003                    5.35965407E-007     112.15  <-- SCF
     24  -3.18799839E+003                    3.78578501E-006     112.98  <-- SCF
     25  -3.18799837E+003                   -8.38676116E-007     113.81  <-- SCF
     26  -3.18799849E+003                    3.83546471E-006     114.65  <-- SCF
     27  -3.18799855E+003                    1.88750135E-006     115.48  <-- SCF
     28  -3.18799863E+003                    2.69975687E-006     116.31  <-- SCF
     29  -3.18799869E+003                    1.78879267E-006     117.14  <-- SCF
     30  -3.18799886E+003                    5.11659660E-006     118.00  <-- SCF
     31  -3.18799887E+003                    5.39631150E-007     118.85  <-- SCF
     32  -3.18799909E+003                    6.83531029E-006     119.68  <-- SCF
     33  -3.18799918E+003                    2.67426507E-006     120.51  <-- SCF
     34  -3.18799935E+003                    5.35349268E-006     121.34  <-- SCF
     35  -3.18799947E+003                    3.78089972E-006     122.17  <-- SCF
     36  -3.18799957E+003                    3.08171945E-006     123.00  <-- SCF
     37  -3.18799972E+003                    4.76245252E-006     123.83  <-- SCF
     38  -3.18799986E+003                    4.34477924E-006     124.66  <-- SCF
     39  -3.18799997E+003                    3.57835167E-006     125.49  <-- SCF
     40  -3.18800006E+003                    2.75342568E-006     126.32  <-- SCF
     41  -3.18800009E+003                    8.54197121E-007     127.15  <-- SCF
     42  -3.18800013E+003                    1.36895369E-006     127.98  <-- SCF
     43  -3.18800015E+003                    5.49368907E-007     128.81  <-- SCF
------------------------------------------------------------------------ <-- SCF
 
Final energy =  -3188.000150826     eV
(energy not corrected for finite basis set)
 
(SEDC) Total Energy Correction : -0.796853E+00 eV

Dispersion corrected final energy* =  -3188.797003621     eV
 
 ************************************** Forces **************************************
 *                                                                                  *
 *                           Cartesian components (eV/A)                            *
 * -------------------------------------------------------------------------------- *
 *                         x                    y                    z              *
 *                                                                                  *
 * H               1      0.03879             -0.09233              0.49061         *
 * H               2      0.12125             -0.18363              0.57097         *
 * H               3     -0.15220             -0.03995             -0.00863         *
 * H               4     -0.13270              0.03649              0.00118         *
 * H               5      0.48057              0.06735             -0.52863         *
 * H               6      0.24272              0.46063             -0.30533         *
 * H               7      0.91963              0.06555             -0.30421         *
 * H               8     -0.05876              0.09162             -0.13459         *
 * H               9     -0.11863              0.06353             -0.03094         *
 * H              10      0.12953              0.01911             -0.03093         *
 * H              11      1.83099              3.04431             -0.06153         *
 * H              12      0.46363             -1.50398              3.91067         *
 * H              13      4.02934              0.40791              1.12282         *
 * H              14      1.45838              1.08061              0.98939         *
 * H              15      1.11847             -2.31391              0.17139         *
 * H              16      0.18390             -0.30185              0.01463         *
 * H              17      0.23886              0.21161              0.15102         *
 * H              18      0.07286             -0.17204              0.46089         *
 * H              19     -0.15954             -0.16862             -0.13863         *
 * H              20     -0.11626              0.25393             -0.00293         *
 * C               1      2.90550             -0.95971              2.11519         *
 * C               2     -0.83385              0.24431             -0.21656         *
 * C               3      4.28496             -1.09030              0.18734         *
 * C               4     -2.16565              0.09951              0.38862         *
 * C               5      3.57919              0.78321             -0.68610         *
 * C               6     -0.41744              0.07637             -0.06830         *
 * C               7      0.37511              0.04686             -0.37810         *
 * N               1     -9.08256              2.04185             -3.48283         *
 * O               1      0.40096              2.92948             -2.84758         *
 * O               2     -2.71136             -2.51541             -1.76845         *
 * O               3     -1.50713             -0.76608             -2.20782         *
 * Si              1     -5.41855             -1.91645              2.62737         *
 *                                                                                  *
 ************************************************************************************
  
 +------------+-------------+-------------+-----------------+ <-- min LBFGS
 |    Step    |   lambda    |   F.delta'  |    enthalpy     | <-- min LBFGS
 +------------+-------------+-------------+-----------------+ <-- min LBFGS
 |  previous  |    0.000000 |    2.489777 |    -3191.523413 | <-- min LBFGS
 | trial step |    0.970595 |   -7.450062 |    -3188.797004 | <-- min LBFGS
 +------------+-------------+-------------+-----------------+ <-- min LBFGS
  

--------------------------------------------------------------------------------
 LBFGS: improving iteration         1 with line minimization (lambda=  0.243119)
--------------------------------------------------------------------------------
 
                           -------------------------------
                                     Cell Contents
                           -------------------------------
 
            xxxxxxxxxxxxxxxxxxxxxxxxxxxxxxxxxxxxxxxxxxxxxxxxxxxxxxxxxxxxxxxxx
            x  Element         Atom        Fractional coordinates of atoms  x
            x                 Number           u          v          w      x
            x---------------------------------------------------------------x
            x  H                 1         0.644141   0.461933   0.537777   x
            x  H                 2         0.659615   0.545414   0.549385   x
            x  H                 3         0.461123   0.470223   0.547896   x
            x  H                 4         0.476101   0.552973   0.559375   x
            x  H                 5         0.731359   0.568464   0.503608   x
            x  H                 6         0.713518   0.485854   0.491042   x
            x  H                 7         0.739494   0.578467   0.451357   x
            x  H                 8         0.620033   0.606077   0.459767   x
            x  H                 9         0.674590   0.469231   0.435082   x
            x  H                10         0.627442   0.535223   0.414201   x
            x  H                11         0.455059   0.398444   0.473972   x
            x  H                12         0.439853   0.452412   0.396015   x
            x  H                13         0.352636   0.543763   0.442872   x
            x  H                14         0.537041   0.499360   0.498204   x
            x  H                15         0.551938   0.578285   0.508547   x
            x  H                16         0.570462   0.433465   0.589760   x
            x  H                17         0.585733   0.515712   0.601198   x
            x  H                18         0.455238   0.460167   0.631502   x
            x  H                19         0.386261   0.442061   0.598974   x
            x  H                20         0.401936   0.524777   0.610561   x
            x  C                 1         0.606781   0.509855   0.539885   x
            x  C                 2         0.513225   0.504784   0.558461   x
            x  C                 3         0.681920   0.535918   0.490791   x
            x  C                 4         0.666820   0.561695   0.459248   x
            x  C                 5         0.624661   0.512100   0.436406   x
            x  C                 6         0.533842   0.481700   0.590282   x
            x  C                 7         0.439006   0.476921   0.608843   x
            x  N                 1         0.586443   0.532654   0.508440   x
            x  O                 1         0.447884   0.435485   0.416492   x
            x  O                 2         0.423440   0.548166   0.448295   x
            x  O                 3         0.494837   0.438825   0.474362   x
            x  Si                1         0.495649   0.483369   0.442127   x
            xxxxxxxxxxxxxxxxxxxxxxxxxxxxxxxxxxxxxxxxxxxxxxxxxxxxxxxxxxxxxxxxx
 
 
------------------------------------------------------------------------ <-- SCF
SCF loop      Energy                           Energy gain       Timer   <-- SCF
                                               per atom          (sec)   <-- SCF
------------------------------------------------------------------------ <-- SCF
Initial  -3.21196340E+003                                        130.17  <-- SCF
      1  -3.18952543E+003                   -7.01186587E-001     131.02  <-- SCF
      2  -3.19125029E+003                    5.39020470E-002     132.28  <-- SCF
      3  -3.19079384E+003                   -1.42643014E-002     133.52  <-- SCF
      4  -3.19090414E+003                    3.44686972E-003     134.65  <-- SCF
      5  -3.19094233E+003                    1.19358622E-003     135.75  <-- SCF
      6  -3.19094293E+003                    1.86842167E-005     136.88  <-- SCF
      7  -3.19094243E+003                   -1.57360067E-005     137.84  <-- SCF
      8  -3.19094218E+003                   -7.58716822E-006     138.73  <-- SCF
      9  -3.19094232E+003                    4.23369805E-006     139.67  <-- SCF
     10  -3.19094266E+003                    1.06394993E-005     140.52  <-- SCF
     11  -3.19094325E+003                    1.84390720E-005     141.33  <-- SCF
     12  -3.19094379E+003                    1.69906188E-005     142.20  <-- SCF
     13  -3.19094418E+003                    1.21223415E-005     143.01  <-- SCF
     14  -3.19094435E+003                    5.14444768E-006     143.83  <-- SCF
     15  -3.19094450E+003                    4.78490928E-006     144.65  <-- SCF
     16  -3.19094460E+003                    3.07257513E-006     145.47  <-- SCF
     17  -3.19094463E+003                    9.81050866E-007     146.28  <-- SCF
     18  -3.19094475E+003                    3.95650954E-006     147.10  <-- SCF
     19  -3.19094482E+003                    2.07940295E-006     147.95  <-- SCF
     20  -3.19094495E+003                    4.18339360E-006     148.78  <-- SCF
     21  -3.19094508E+003                    4.03299701E-006     149.61  <-- SCF
     22  -3.19094509E+003                    2.28700905E-007     150.44  <-- SCF
     23  -3.19094517E+003                    2.31508291E-006     151.27  <-- SCF
     24  -3.19094520E+003                    1.10163272E-006     152.10  <-- SCF
     25  -3.19094524E+003                    1.15859098E-006     152.94  <-- SCF
     26  -3.19094530E+003                    1.96635700E-006     153.77  <-- SCF
     27  -3.19094534E+003                    1.11547281E-006     154.60  <-- SCF
     28  -3.19094540E+003                    1.88611856E-006     155.43  <-- SCF
     29  -3.19094549E+003                    2.96682063E-006     156.26  <-- SCF
     30  -3.19094555E+003                    1.87440024E-006     157.09  <-- SCF
     31  -3.19094569E+003                    4.25796527E-006     157.92  <-- SCF
     32  -3.19094577E+003                    2.62844307E-006     158.75  <-- SCF
     33  -3.19094591E+003                    4.36865677E-006     159.58  <-- SCF
     34  -3.19094602E+003                    3.44490083E-006     160.41  <-- SCF
     35  -3.19094612E+003                    3.04245007E-006     161.24  <-- SCF
     36  -3.19094623E+003                    3.50543516E-006     162.07  <-- SCF
     37  -3.19094629E+003                    1.87768934E-006     162.93  <-- SCF
     38  -3.19094636E+003                    2.26697200E-006     163.77  <-- SCF
     39  -3.19094639E+003                    7.83281569E-007     164.61  <-- SCF
     40  -3.19094642E+003                    8.97747668E-007     165.44  <-- SCF
------------------------------------------------------------------------ <-- SCF
 
Final energy =  -3190.946417938     eV
(energy not corrected for finite basis set)
 
(SEDC) Total Energy Correction : -0.801986E+00 eV

Dispersion corrected final energy* =  -3191.748404203     eV
 
 ************************************** Forces **************************************
 *                                                                                  *
 *                           Cartesian components (eV/A)                            *
 * -------------------------------------------------------------------------------- *
 *                         x                    y                    z              *
 *                                                                                  *
 * H               1     -0.05235              0.13241             -0.01889         *
 * H               2     -0.05690             -0.09050             -0.02541         *
 * H               3      0.00415              0.00280             -0.01517         *
 * H               4     -0.00273              0.02891             -0.02450         *
 * H               5     -0.06109             -0.07751             -0.12439         *
 * H               6     -0.16631              0.20574              0.00689         *
 * H               7      0.09576              0.00096              0.00475         *
 * H               8      0.00422             -0.05661              0.03775         *
 * H               9     -0.13957              0.00938              0.02929         *
 * H              10     -0.02572             -0.03904              0.09646         *
 * H              11      0.28080              0.45130              0.10678         *
 * H              12      0.11014             -0.38899              0.84819         *
 * H              13      0.89080              0.08176              0.27962         *
 * H              14      0.19481             -0.01354              0.21593         *
 * H              15      0.22476             -0.39436              0.00076         *
 * H              16      0.06240              0.02439             -0.06146         *
 * H              17      0.04904              0.01945             -0.04867         *
 * H              18      0.01666              0.00360             -0.02308         *
 * H              19      0.00359              0.01297             -0.00907         *
 * H              20      0.00215              0.00648              0.00538         *
 * C               1      0.03138              0.04276              0.05449         *
 * C               2     -0.19962              0.03646             -0.01098         *
 * C               3     -0.08861              0.09323             -0.05057         *
 * C               4     -0.15167              0.00523             -0.11313         *
 * C               5      0.28826              0.17110              0.09162         *
 * C               6      0.01515             -0.02087              0.11124         *
 * C               7     -0.01395              0.02488             -0.05106         *
 * N               1      0.01089              0.00802              0.04593         *
 * O               1      0.11049              0.30238             -0.63453         *
 * O               2     -0.30771             -0.14039             -0.29701         *
 * O               3     -0.19416             -0.20316             -0.80173         *
 * Si              1     -0.93507             -0.23925              0.37458         *
 *                                                                                  *
 ************************************************************************************
  
 +------------+-------------+-------------+-----------------+ <-- min LBFGS
 |    Step    |   lambda    |   F.delta'  |    enthalpy     | <-- min LBFGS
 +------------+-------------+-------------+-----------------+ <-- min LBFGS
 |  previous  |    0.000000 |    2.489777 |    -3191.523413 | <-- min LBFGS
 | trial step |    0.970595 |   -7.450062 |    -3188.797004 | <-- min LBFGS
 |  line step |    0.243119 |   -0.503640 |    -3191.748404 | <-- min LBFGS
 +------------+-------------+-------------+-----------------+ <-- min LBFGS
  
 LBFGS: finished iteration     1 with enthalpy= -3.19174840E+003 eV
  
 +-----------+-----------------+-----------------+------------+-----+ <-- LBFGS
 | Parameter |      value      |    tolerance    |    units   | OK? | <-- LBFGS
 +-----------+-----------------+-----------------+------------+-----+ <-- LBFGS
 |  dE/ion   |   7.030966E-003 |   2.000000E-005 |         eV | No  | <-- LBFGS
 |  |F|max   |   1.035328E+000 |   5.000000E-002 |       eV/A | No  | <-- LBFGS
 |  |dR|max  |   6.627538E-002 |   2.000000E-003 |          A | No  | <-- LBFGS
 +-----------+-----------------+-----------------+------------+-----+ <-- LBFGS
  

================================================================================
 Starting LBFGS iteration          2 ...
================================================================================
  
 +------------+-------------+-------------+-----------------+ <-- min LBFGS
 |    Step    |   lambda    |   F.delta'  |    enthalpy     | <-- min LBFGS
 +------------+-------------+-------------+-----------------+ <-- min LBFGS
 |  previous  |    0.000000 |    0.698658 |    -3191.748404 | <-- min LBFGS
 +------------+-------------+-------------+-----------------+ <-- min LBFGS
  

--------------------------------------------------------------------------------
 LBFGS: starting iteration         2 with trial guess (lambda=  1.000000)
--------------------------------------------------------------------------------
 
                           -------------------------------
                                     Cell Contents
                           -------------------------------
 
            xxxxxxxxxxxxxxxxxxxxxxxxxxxxxxxxxxxxxxxxxxxxxxxxxxxxxxxxxxxxxxxxx
            x  Element         Atom        Fractional coordinates of atoms  x
            x                 Number           u          v          w      x
            x---------------------------------------------------------------x
            x  H                 1         0.642500   0.463263   0.537447   x
            x  H                 2         0.657928   0.545462   0.549021   x
            x  H                 3         0.460586   0.470988   0.547522   x
            x  H                 4         0.475510   0.553839   0.558973   x
            x  H                 5         0.727855   0.568421   0.503374   x
            x  H                 6         0.709222   0.487282   0.491131   x
            x  H                 7         0.737495   0.578509   0.451765   x
            x  H                 8         0.618365   0.605607   0.460229   x
            x  H                 9         0.670733   0.469395   0.435996   x
            x  H                10         0.624799   0.534971   0.415393   x
            x  H                11         0.456744   0.397522   0.473196   x
            x  H                12         0.443392   0.447095   0.397986   x
            x  H                13         0.364594   0.544822   0.443780   x
            x  H                14         0.538218   0.497549   0.498416   x
            x  H                15         0.554292   0.577034   0.508848   x
            x  H                16         0.570832   0.434815   0.589100   x
            x  H                17         0.585934   0.516764   0.600545   x
            x  H                18         0.455239   0.461524   0.630679   x
            x  H                19         0.386255   0.443453   0.598348   x
            x  H                20         0.401875   0.525912   0.609947   x
            x  C                 1         0.605119   0.510555   0.539662   x
            x  C                 2         0.511962   0.505608   0.558118   x
            x  C                 3         0.678011   0.536794   0.490690   x
            x  C                 4         0.664716   0.561683   0.459429   x
            x  C                 5         0.622474   0.512526   0.437450   x
            x  C                 6         0.533983   0.482709   0.589904   x
            x  C                 7         0.438729   0.478223   0.608174   x
            x  N                 1         0.590557   0.531730   0.509101   x
[...]
 * H              17      0.00141             -0.00419             -0.00060         *
 * H              18      0.00123             -0.00137              0.00894         *
 * H              19      0.00470              0.00675              0.00579         *
 * H              20      0.00081              0.00199             -0.00248         *
 * C               1     -0.00105             -0.00106             -0.00854         *
 * C               2     -0.02478              0.01583             -0.00596         *
 * C               3      0.00447              0.00659             -0.00253         *
 * C               4     -0.00119             -0.00851              0.00630         *
 * C               5     -0.00365              0.01324             -0.01164         *
 * C               6      0.00126              0.00944              0.00573         *
 * C               7     -0.00682             -0.00567             -0.01586         *
 * N               1     -0.00551             -0.01080              0.00348         *
 * O               1     -0.00208              0.00081              0.00179         *
 * O               2     -0.00631             -0.00443              0.00127         *
 * O               3      0.01207              0.01449              0.00233         *
 * Si              1     -0.00720             -0.00450              0.00047         *
 *                                                                                  *
 ************************************************************************************
 
 Pseudo atomic calculation performed for H 1s1
 
 Converged in 13 iterations to a total energy of -12.4790 eV
 
 Pseudo atomic calculation performed for C 2s2 2p2
 
 Converged in 17 iterations to a total energy of -148.5208 eV
 
 Pseudo atomic calculation performed for N 2s2 2p3
 
 Converged in 21 iterations to a total energy of -268.1820 eV
 
 Pseudo atomic calculation performed for O 2s2 2p4
 
 Converged in 23 iterations to a total energy of -432.6536 eV
 
 Pseudo atomic calculation performed for Si 3s2 3p2
 
 Converged in 11 iterations to a total energy of -165.0683 eV
Charge spilling parameter for spin component 1 = 1.54%
 
            Orbital Populations       
     Ion    Atom   Orbital             Charge
  -------------------------------------------
      H     1      S                    0.694
      H     2      S                    0.695
      H     3      S                    0.734
      H     4      S                    0.732
      H     5      S                    0.688
      H     6      S                    0.694
      H     7      S                    0.685
      H     8      S                    0.719
      H     9      S                    0.718
      H    10      S                    0.694
      H    11      S                    0.447
      H    12      S                    0.448
      H    13      S                    0.463
      H    14      S                    0.566
      H    15      S                    0.521
      H    16      S                    0.730
      H    17      S                    0.724
      H    18      S                    0.698
      H    19      S                    0.736
      H    20      S                    0.729
      C     1      S                    1.297
      C     1      Px                   1.115
      C     1      Py                   1.224
      C     1      Pz                   0.767
      C     2      S                    1.297
      C     2      Px                   1.018
      C     2      Py                   1.189
      C     2      Pz                   1.015
      C     3      S                    1.299
      C     3      Px                   0.897
      C     3      Py                   1.235
      C     3      Pz                   0.980
      C     4      S                    1.305
      C     4      Px                   1.216
      C     4      Py                   1.088
      C     4      Pz                   0.926
      C     5      S                    1.408
      C     5      Px                   1.264
      C     5      Py                   1.143
      C     5      Pz                   1.165
      C     6      S                    1.304
      C     6      Px                   1.085
      C     6      Py                   1.178
      C     6      Pz                   0.944
      C     7      S                    1.399
      C     7      Px                   1.042
      C     7      Py                   1.198
      C     7      Pz                   1.154
      N     1      S                    1.569
      N     1      Px                   1.329
      N     1      Py                   1.434
      N     1      Pz                   1.265
      O     1      S                    1.851
      O     1      Px                   1.869
      O     1      Py                   1.834
      O     1      Pz                   1.537
      O     2      S                    1.855
      O     2      Px                   1.542
      O     2      Py                   1.809
      O     2      Pz                   1.892
      O     3      S                    1.844
      O     3      Px                   1.885
      O     3      Py                   1.593
      O     3      Pz                   1.776
     Si     1      S                    0.741
     Si     1      Px                   0.483
     Si     1      Py                   0.297
     Si     1      Pz                   0.326
  -------------------------------------------
                           Total:      74.000
  -------------------------------------------
 
     Atomic Populations (Mulliken)
     -----------------------------
Species          Ion     s       p       d       f      Total   Charge (e)
==========================================================================
  H               1     0.694   0.000   0.000   0.000   0.694     0.306
  H               2     0.695   0.000   0.000   0.000   0.695     0.305
  H               3     0.734   0.000   0.000   0.000   0.734     0.266
  H               4     0.732   0.000   0.000   0.000   0.732     0.268
  H               5     0.688   0.000   0.000   0.000   0.688     0.312
  H               6     0.694   0.000   0.000   0.000   0.694     0.306
  H               7     0.685   0.000   0.000   0.000   0.685     0.315
  H               8     0.719   0.000   0.000   0.000   0.719     0.281
  H               9     0.718   0.000   0.000   0.000   0.718     0.282
  H              10     0.694   0.000   0.000   0.000   0.694     0.306
  H              11     0.447   0.000   0.000   0.000   0.447     0.553
  H              12     0.448   0.000   0.000   0.000   0.448     0.552
  H              13     0.463   0.000   0.000   0.000   0.463     0.537
  H              14     0.566   0.000   0.000   0.000   0.566     0.434
  H              15     0.521   0.000   0.000   0.000   0.521     0.479
  H              16     0.730   0.000   0.000   0.000   0.730     0.270
  H              17     0.724   0.000   0.000   0.000   0.724     0.276
  H              18     0.698   0.000   0.000   0.000   0.698     0.302
  H              19     0.736   0.000   0.000   0.000   0.736     0.264
  H              20     0.729   0.000   0.000   0.000   0.729     0.271
  C               1     1.297   3.106   0.000   0.000   4.403    -0.403
  C               2     1.297   3.222   0.000   0.000   4.519    -0.519
  C               3     1.299   3.112   0.000   0.000   4.411    -0.411
  C               4     1.305   3.230   0.000   0.000   4.535    -0.535
  C               5     1.408   3.572   0.000   0.000   4.981    -0.981
  C               6     1.304   3.207   0.000   0.000   4.512    -0.512
  C               7     1.399   3.394   0.000   0.000   4.793    -0.793
  N               1     1.569   4.027   0.000   0.000   5.597    -0.597
  O               1     1.851   5.239   0.000   0.000   7.090    -1.090
  O               2     1.855   5.243   0.000   0.000   7.099    -1.099
  O               3     1.844   5.254   0.000   0.000   7.098    -1.098
  Si              1     0.741   1.107   0.000   0.000   1.848     2.152
==========================================================================
 
                 Bond                   Population      Length (A)
======================================================================
              H 12 -- O 1                    0.53        0.96931
              H 11 -- O 3                    0.52        0.96945
              H 13 -- O 2                    0.53        0.97039
              H 15 -- N 1                    0.68        1.02811
              H 14 -- N 1                    0.66        1.05193
              H 18 -- C 7                    0.81        1.09692
              H 5  -- C 3                    0.86        1.09755
              H 2  -- C 1                    0.86        1.09764
              H 1  -- C 1                    0.85        1.09806
              H 6  -- C 3                    0.85        1.09885
              H 20 -- C 7                    0.81        1.09955
              H 19 -- C 7                    0.81        1.09995
              H 7  -- C 4                    0.84        1.10027
              H 17 -- C 6                    0.84        1.10120
              H 8  -- C 4                    0.84        1.10173
              H 16 -- C 6                    0.84        1.10182
              H 9  -- C 5                    0.82        1.10206
              H 3  -- C 2                    0.85        1.10261
              H 10 -- C 5                    0.81        1.10273
              H 4  -- C 2                    0.84        1.10378
               C 3 -- N 1                    0.52        1.50627
               C 1 -- N 1                    0.52        1.50735
               C 1 -- C 2                    0.71        1.51937
               C 3 -- C 4                    0.70        1.52553
               C 6 -- C 7                    0.65        1.52732
               C 2 -- C 6                    0.68        1.53302
               C 4 -- C 5                    0.64        1.54292
               O 1 -- Si 1                   0.54        1.63327
               O 2 -- Si 1                   0.50        1.64878
              H 14 -- H 15                  -0.10        1.67129
               O 3 -- Si 1                   0.42        1.68021
              H 14 -- O 3                    0.10        1.73835
              H 9  -- H 10                  -0.09        1.75988
              H 7  -- H 8                   -0.11        1.76033
              H 16 -- H 17                  -0.12        1.76350
              H 18 -- H 20                  -0.10        1.77431
              H 3  -- H 4                   -0.12        1.77464
              H 18 -- H 19                  -0.10        1.77623
              H 1  -- H 2                   -0.11        1.77677
              H 19 -- H 20                  -0.11        1.77877
              H 5  -- H 6                   -0.11        1.78089
               C 5 -- Si 1                   0.63        1.86647
              H 15 -- C 3                   -0.13        2.08543
              H 14 -- C 1                   -0.12        2.08584
              H 5  -- N 1                   -0.12        2.09093
              H 15 -- C 1                   -0.12        2.09331
              H 1  -- N 1                   -0.11        2.09668
              H 6  -- N 1                   -0.11        2.09875
              H 14 -- C 3                   -0.11        2.10214
              H 7  -- C 3                   -0.14        2.10520
              H 2  -- N 1                   -0.11        2.11058
              H 10 -- C 4                   -0.12        2.15433
              H 3  -- C 1                   -0.13        2.15786
              H 16 -- C 2                   -0.13        2.16027
              H 8  -- C 3                   -0.13        2.16036
              H 4  -- C 1                   -0.14        2.16122
              H 16 -- C 7                   -0.13        2.16235
              H 17 -- C 2                   -0.13        2.16373
              H 3  -- C 6                   -0.12        2.16380
              H 17 -- C 7                   -0.13        2.16407
              H 7  -- C 5                   -0.14        2.16506
              H 18 -- C 6                   -0.12        2.16954
              H 4  -- C 6                   -0.12        2.16963
              H 1  -- C 2                   -0.12        2.17198
              H 5  -- C 4                   -0.13        2.17393
              H 19 -- C 6                   -0.12        2.18001
              H 9  -- C 4                   -0.11        2.18015
              H 6  -- C 4                   -0.12        2.18187
              H 2  -- C 2                   -0.12        2.18312
              H 20 -- C 6                   -0.12        2.18493
              H 8  -- C 5                   -0.13        2.18509
              H 13 -- Si 1                  -0.14        2.28625
              H 12 -- Si 1                  -0.12        2.29920
              H 11 -- Si 1                  -0.11        2.30972
              H 5  -- H 7                   -0.05        2.34298
              H 2  -- H 5                   -0.02        2.35455
              H 1  -- H 14                  -0.04        2.36894
              H 6  -- H 14                  -0.04        2.38121
              H 7  -- H 10                  -0.05        2.40554
              H 10 -- Si 1                  -0.12        2.42964
              H 8  -- H 15                  -0.01        2.43619
              H 5  -- H 15                  -0.03        2.43935
              H 9  -- Si 1                  -0.13        2.45489
              H 2  -- H 15                  -0.03        2.46014
              H 3  -- H 14                  -0.01        2.48115
              H 1  -- H 6                   -0.01        2.48195
              H 16 -- H 18                  -0.03        2.48921
              H 17 -- H 18                  -0.03        2.49710
              H 1  -- H 16                  -0.01        2.50281
              H 2  -- H 4                   -0.04        2.50650
              H 3  -- H 16                  -0.03        2.50786
               C 2 -- N 1                   -0.13        2.50951
               C 1 -- C 6                   -0.15        2.51602
              H 4  -- H 17                  -0.03        2.51983
               C 1 -- C 3                   -0.15        2.51990
              H 16 -- H 19                  -0.03        2.52699
              H 17 -- H 20                  -0.03        2.53014
              H 8  -- H 10                  -0.02        2.53203
              H 7  -- H 9                   -0.03        2.53226
               C 4 -- N 1                   -0.12        2.53915
              H 1  -- H 3                   -0.03        2.53996
               C 2 -- C 7                   -0.15        2.54485
              H 4  -- H 15                  -0.00        2.54639
              H 6  -- H 9                   -0.01        2.54773
              H 11 -- H 14                  -0.01        2.54939
              H 6  -- H 7                   -0.01        2.57167
              H 5  -- H 8                   -0.02        2.57480
              H 3  -- H 19                  -0.01        2.58586
              H 2  -- H 17                  -0.01        2.60148
               C 3 -- C 5                   -0.15        2.60179
               O 1 -- O 3                   -0.07        2.61184
              H 4  -- H 20                  -0.01        2.61256
              H 11 -- O 1                   -0.01        2.64832
              H 5  -- C 1                   -0.05        2.65641
              H 14 -- Si 1                  -0.06        2.66202
              H 2  -- C 3                   -0.04        2.68688
              H 15 -- C 2                   -0.04        2.68881
               O 2 -- O 3                   -0.08        2.69027
              H 15 -- C 4                   -0.04        2.69775
              H 3  -- N 1                   -0.03        2.71189
              H 8  -- N 1                   -0.03        2.71226
              H 14 -- C 2                   -0.03        2.72013
              H 1  -- C 3                   -0.03        2.72695
              H 16 -- C 1                   -0.04        2.73233
              H 6  -- C 1                   -0.03        2.73594
              H 17 -- C 1                   -0.04        2.73912
              H 1  -- C 6                   -0.04        2.74708
               N 1 -- O 3                   -0.11        2.76101
              H 8  -- O 2                   -0.00        2.76146
              H 6  -- C 5                   -0.05        2.77234
              H 3  -- C 7                   -0.04        2.77434
               C 5 -- O 2                   -0.11        2.77750
               O 1 -- O 2                   -0.07        2.78154
              H 4  -- C 7                   -0.04        2.78254
              H 4  -- N 1                   -0.02        2.79316
              H 14 -- C 4                   -0.02        2.79899
              H 19 -- C 2                   -0.04        2.80889
              H 9  -- C 3                   -0.04        2.82139
              H 20 -- C 2                   -0.04        2.82517
              H 2  -- C 6                   -0.03        2.82836
               C 5 -- O 3                   -0.10        2.85745
               C 4 -- Si 1                  -0.13        2.90781
              H 3  -- H 15                  -0.00        2.94372
              H 6  -- H 15                   0.03        2.95528
              H 1  -- H 15                   0.03        2.95875
              H 5  -- H 14                   0.03        2.96871
              H 2  -- H 14                   0.03        2.97234
              H 1  -- H 5                   -0.00        2.98124
               C 5 -- O 1                   -0.08        2.98837
              H 13 -- O 1                   -0.01        2.99337
======================================================================
 
 
     Hirshfeld Analysis
     ------------------
Species   Ion     Hirshfeld Charge (e)
======================================
  H        1                 0.06
  H        2                 0.06
  H        3                 0.04
  H        4                 0.05
  H        5                 0.07
  H        6                 0.07
  H        7                 0.06
  H        8                 0.05
  H        9                 0.05
  H       10                 0.06
  H       11                 0.19
  H       12                 0.19
  H       13                 0.17
  H       14                 0.11
  H       15                 0.17
  H       16                 0.04
  H       17                 0.05
  H       18                 0.05
  H       19                 0.04
  H       20                 0.04
  C        1                 0.01
  C        2                -0.06
  C        3                 0.01
  C        4                -0.05
  C        5                -0.15
  C        6                -0.05
  C        7                -0.10
  N        1                 0.02
  O        1                -0.27
  O        2                -0.28
  O        3                -0.25
  Si       1                 0.48
======================================
 

Writing analysis data to Conf_0004.castep_bin

Writing model to Conf_0004.check
 
 A BibTeX formatted list of references used in this run has been written to 
 Conf_0004.bib
 
Initialisation time =     26.05 s
Calculation time    =    821.83 s
Finalisation time   =      1.14 s
Total time          =    849.03 s
Peak Memory Use     = 7906588 kB
 
Overall parallel efficiency rating: Satisfactory (65%)
 
Data was distributed by:-
G-vector (48-way); efficiency rating: Satisfactory (65%)
High Water Mark     = 1889272 kB
