 Job started on host drago31040137.mgmt.cc.csic.es
 at Sun Mar 31 01:40:20 2024

 +-------------------------------------------------+
 |                                                 |
 |      CCC   AA    SSS  TTTTT  EEEEE  PPPP        |
 |     C     A  A  S       T    E      P   P       |
 |     C     AAAA   SS     T    EEE    PPPP        |
 |     C     A  A     S    T    E      P           |
 |      CCC  A  A  SSS     T    EEEEE  P           |
 |                                                 |
 +-------------------------------------------------+
 |                                                 |
 | Materials Studio CASTEP version 2024            |
 | Ab Initio Total Energy Program                  |
 |                                                 |
 | Authors:                                        |
 | M. Segall, M. Probert, C. Pickard, P. Hasnip,   |
 | S. Clark, K. Refson, J. R. Yates,               |
 | A. Bartok-Partay, M. Payne                      |
 |                                                 |
 | Contributors:                                   |
 | P. Lindan, P. Haynes, J. White, V. Milman,      |
 | N. Govind, M. Gibson, P. Tulip, V. Cocula,      |
 | B. Montanari, D. Quigley, M. Glover,            |
 | L. Bernasconi, A. Perlov, M. Plummer,           |
 | E. McNellis, J. Meyer, J. Gale, D. Jochym       |
 | J. Aarons, B. Walker, R. Gillen, D. Jones       |
 | T. Green, I. J. Bush, C. J. Armstrong,          |
 | E. J. Higgins, E. L. Brown, M. S. McFly,        |
 | J. Wilkins, B-C. Shih, P. J. P. Byrne,          |
 | R. J. Maurer, J. C. Womack, J. Dziedzic,        |
 | L. LeBlanc, T. K. Stenczel, J. Kermode,         |
 | S. Sturniolo, B. Shi, B. Durham, M. Evans,      |
 | M. J. Smith, A. Tamerus, Z. Hawkhead,           |
 | V. Ravindran, T. Hollins, S. A. Joyce,          |
 | R. T. Strong, A. M. Reilly                      |
 |                                                 |
 | Copyright (c) 2000 - 2023                       |
 |                                                 |
 | Please cite                                     |
 |                                                 |
 |     "First principles methods using CASTEP"     |
 |                                                 |
 |         Zeitschrift fuer Kristallographie       |
 |           220(5-6) pp. 567-570 (2005)           |
 |                                                 |
 | S. J. Clark, M. D. Segall, C. J. Pickard,       |
 | P. J. Hasnip, M. J. Probert, K. Refson,         |
 | M. C. Payne                                     |
 |                                                 |
 |       in all publications arising from          |
 |              your use of CASTEP                 |
 |                                                 |
 +-------------------------------------------------+
 |                                                 |
 |              http://www.castep.org              |
 |                                                 |
 +-------------------------------------------------+
 
 
 This version was compiled for x86_64-rhel7-intel19.0 on Oct 24 2023
 Code version:    a9f326b
 Intel(R) Math Kernel Library Version 2019.0.4 
 Fundamental constants values: CODATA 2018
 
License checkout of MS_castep successful
 
 
 Atomic calculation performed for H: 1s1
 
 Converged in 41 iterations to an ae energy of -12.488 eV
 
 Identity difference: 2.63E-05
 
   ============================================================                
   | Pseudopotential Report - Date of generation 31-03-2024   |                
   ------------------------------------------------------------                
   | Element: H Ionic charge:  1.00 Level of theory: PBE      |                
   | Atomic Solver: Koelling-Harmon                           |                
   |                                                          |                
   |               Reference Electronic Structure             |                
   |         Orbital         Occupation         Energy        |                
   |            1s              1.000           -0.239        |                
   |                                                          |                
   |                 Pseudopotential Definition               |                
   |        Beta     l      e      Rc     scheme   norm       |                
   |          1      0   -0.239   0.599     qc      0         |                
   |          2      0    0.250   0.599     qc      0         |                
   |         loc     1    0.000   0.599     pn      0         |                
   |                                                          |                
   | Augmentation charge Rinner = 0.421                       |                
   | No partial core correction                               |                
   ------------------------------------------------------------                
   | "1|0.6|9|10|15|10UU(qc=8)[]"                             |                
   ------------------------------------------------------------                
   |      Author: Chris J. Pickard, Cambridge University      |                
   ============================================================                
 
 Doing a self consistent calculation for the test configuration
 
 Atomic calculation performed for H: 1s1
 
 Converged in 41 iterations to an ae energy of -12.488 eV
 
 ---------------------------------------
 AE eigenvalue nl 10 =       -0.23860176
 ---------------------------------------
 PS eigenvalue nl 10 =       -0.23857601
 ---------------------------------------
 Maximum eigenvalue error:   2.57E-05
 
 Derived cutoff energies: C=   1 M=   6 F=  10 E=  20
 
 Checking for ghost states up to   1.51185 Ha
 
 No Ghost States Identified
 
 ***************************************
 
 Atomic calculation performed for C: 1s2 2s2 2p2
 
 Converged in 54 iterations to an ae energy of -1027.632 eV
 
 Identity difference: 2.37E-04
 
   ============================================================                
   | Pseudopotential Report - Date of generation 31-03-2024   |                
   ------------------------------------------------------------                
   | Element: C Ionic charge:  4.00 Level of theory: PBE      |                
   | Atomic Solver: Koelling-Harmon                           |                
   |                                                          |                
   |               Reference Electronic Structure             |                
   |         Orbital         Occupation         Energy        |                
   |            2s              2.000           -0.505        |                
   |            2p              2.000           -0.194        |                
   |                                                          |                
   |                 Pseudopotential Definition               |                
   |        Beta     l      e      Rc     scheme   norm       |                
   |          1      0   -0.505   1.395     qc      0         |                
   |          2      0    0.250   1.395     qc      0         |                
   |          3      1   -0.194   1.395     qc      0         |                
   |          4      1    0.250   1.395     qc      0         |                
   |         loc     2    0.000   1.395     pn      0         |                
   |                                                          |                
   | Augmentation charge Rinner = 0.983                       |                
   | Partial core correction Rc = 0.983                       |                
   ------------------------------------------------------------                
   | "2|1.4|11|12|14.7|20UU:21UU(qc=7)[]"                     |                
   ------------------------------------------------------------                
   |      Author: Chris J. Pickard, Cambridge University      |                
   ============================================================                
 
 Doing a self consistent calculation for the test configuration
 
 Atomic calculation performed for C: 1s2 2s2 2p2
 
 Converged in 54 iterations to an ae energy of -1027.632 eV
 
 ---------------------------------------
 AE eigenvalue nl 10 =      -10.04653081
 AE eigenvalue nl 20 =       -0.50533429
 AE eigenvalue nl 21 =       -0.19423807
 ---------------------------------------
 PS eigenvalue nl 20 =       -0.50531853
 PS eigenvalue nl 21 =       -0.19422214
 ---------------------------------------
 Maximum eigenvalue error:   1.59E-05
 
 Derived cutoff energies: C=   6 M=  10 F=  12 E=  16
 
 Checking for ghost states up to   1.47183 Ha
 
 No Ghost States Identified
 
 ***************************************
 
 Atomic calculation performed for N: 1s2 2s2 2p3
 
 Converged in 55 iterations to an ae energy of -1481.742 eV
 
 Identity difference: 2.27E-04
 
   ============================================================                
   | Pseudopotential Report - Date of generation 31-03-2024   |                
   ------------------------------------------------------------                
   | Element: N Ionic charge:  5.00 Level of theory: PBE      |                
   | Atomic Solver: Koelling-Harmon                           |                
   |                                                          |                
   |               Reference Electronic Structure             |                
   |         Orbital         Occupation         Energy        |                
   |            2s              2.000           -0.683        |                
   |            2p              3.000           -0.261        |                
   |                                                          |                
   |                 Pseudopotential Definition               |                
   |        Beta     l      e      Rc     scheme   norm       |                
   |          1      0   -0.683   1.100     qc      0         |                
   |          2      0    0.250   1.100     qc      0         |                
   |          3      1   -0.261   1.100     qc      0         |                
   |          4      1    0.250   1.100     qc      0         |                
   |         loc     2    0.000   1.100     pn      0         |                
   |                                                          |                
   | Augmentation charge Rinner = 0.769                       |                
   | Partial core correction Rc = 0.769                       |                
   ------------------------------------------------------------                
   | "2|1.1|12|16|19|20UU:21UU(qc=7)[]"                       |                
   ------------------------------------------------------------                
   |      Author: Chris J. Pickard, Cambridge University      |                
   ============================================================                
 
 Doing a self consistent calculation for the test configuration
 
 Atomic calculation performed for N: 1s2 2s2 2p3
 
 Converged in 55 iterations to an ae energy of -1481.742 eV
 
 ---------------------------------------
 AE eigenvalue nl 10 =      -14.13820921
 AE eigenvalue nl 20 =       -0.68290611
 AE eigenvalue nl 21 =       -0.26054797
 ---------------------------------------
 PS eigenvalue nl 20 =       -0.68291221
 PS eigenvalue nl 21 =       -0.26051708
 ---------------------------------------
 Maximum eigenvalue error:   3.09E-05
 
 Derived cutoff energies: C=  10 M=  15 F=  18 E=  23
 
 Checking for ghost states up to   1.48495 Ha
 
 No Ghost States Identified
 
 ***************************************
 
 Atomic calculation performed for O: 1s2 2s2 2p4
 
 Converged in 61 iterations to an ae energy of -2040.902 eV
 
 Identity difference: 4.10E-04
 
   ============================================================                
   | Pseudopotential Report - Date of generation 31-03-2024   |                
   ------------------------------------------------------------                
   | Element: O Ionic charge:  6.00 Level of theory: PBE      |                
   | Atomic Solver: Koelling-Harmon                           |                
   |                                                          |                
   |               Reference Electronic Structure             |                
   |         Orbital         Occupation         Energy        |                
   |            2s              2.000           -0.881        |                
   |            2p              4.000           -0.332        |                
   |                                                          |                
   |                 Pseudopotential Definition               |                
   |        Beta     l      e      Rc     scheme   norm       |                
   |          1      0   -0.881   1.100     qc      0         |                
   |          2      0    0.250   1.100     qc      0         |                
   |          3      1   -0.332   1.100     qc      0         |                
   |          4      1    0.250   1.100     qc      0         |                
   |         loc     2    0.000   1.100     pn      0         |                
   |                                                          |                
   | Augmentation charge Rinner = 0.769                       |                
   | Partial core correction Rc = 0.769                       |                
   ------------------------------------------------------------                
   | "2|1.1|14|18|21|20UU:21UU(qc=7)[]"                       |                
   ------------------------------------------------------------                
   |      Author: Chris J. Pickard, Cambridge University      |                
   ============================================================                
 
 Doing a self consistent calculation for the test configuration
 
 Atomic calculation performed for O: 1s2 2s2 2p4
 
 Converged in 61 iterations to an ae energy of -2040.902 eV
 
 ---------------------------------------
 AE eigenvalue nl 10 =      -18.91475256
 AE eigenvalue nl 20 =       -0.88057101
 AE eigenvalue nl 21 =       -0.33186952
 ---------------------------------------
 PS eigenvalue nl 20 =       -0.88059206
 PS eigenvalue nl 21 =       -0.33182157
 ---------------------------------------
 Maximum eigenvalue error:   4.80E-05
 
 Derived cutoff energies: C=  14 M=  17 F=  20 E=  22
 
 Checking for ghost states up to   1.49452 Ha
 
 No Ghost States Identified
 
 ***************************************
 
 Atomic calculation performed for Si: 1s2 2s2 2p6 3s2 3p2
 
 Converged in 54 iterations to an ae energy of -7886.857 eV
 
 Identity difference: 1.35E-04
 
   ============================================================                
   | Pseudopotential Report - Date of generation 31-03-2024   |                
   ------------------------------------------------------------                
   | Element: Si Ionic charge:  4.00 Level of theory: PBE     |                
   | Atomic Solver: Koelling-Harmon                           |                
   |                                                          |                
   |               Reference Electronic Structure             |                
   |         Orbital         Occupation         Energy        |                
   |            3s              2.000           -0.397        |                
   |            3p              2.000           -0.150        |                
   |                                                          |                
   |                 Pseudopotential Definition               |                
   |        Beta     l      e      Rc     scheme   norm       |                
   |          1      0   -0.397   1.797     qc      0         |                
   |          2      0    0.250   1.797     qc      0         |                
   |          3      1   -0.150   1.797     qc      0         |                
   |          4      1    0.250   1.797     qc      0         |                
   |          5      2    0.000   1.797     qc      0         |                
   |          6      2    0.250   1.797     qc      0         |                
   |         loc     3    0.000   1.797     pn      0         |                
   |                                                          |                
   | Augmentation charge Rinner = 1.255                       |                
   | Partial core correction Rc = 1.255                       |                
   ------------------------------------------------------------                
   | "3|1.8|3.6|5|7|30UU:31UU:32UU[]"                         |                
   ------------------------------------------------------------                
   |      Author: Chris J. Pickard, Cambridge University      |                
   ============================================================                
 
 Doing a self consistent calculation for the test configuration
 
 Atomic calculation performed for Si: 1s2 2s2 2p6 3s2 3p2
 
 Converged in 54 iterations to an ae energy of -7886.857 eV
 
 ---------------------------------------
 AE eigenvalue nl 10 =      -65.63192903
 AE eigenvalue nl 20 =       -5.12654326
 AE eigenvalue nl 21 =       -3.51173659
 AE eigenvalue nl 30 =       -0.39736430
 AE eigenvalue nl 31 =       -0.14998156
 ---------------------------------------
 PS eigenvalue nl 30 =       -0.39734922
 PS eigenvalue nl 31 =       -0.14996719
 ---------------------------------------
 Maximum eigenvalue error:   1.51E-05
 
 Derived cutoff energies: C=   1 M=   3 F=   6 E=   6
 
 Checking for ghost states up to   1.41161 Ha
 
 No Ghost States Identified
 
 ***************************************
 
 Pseudo atomic calculation performed for H 1s1
 
 Converged in 13 iterations to a total energy of -12.4790 eV
 
 Pseudo atomic calculation performed for C 2s2 2p2
 
 Converged in 17 iterations to a total energy of -148.5208 eV
 
 Pseudo atomic calculation performed for N 2s2 2p3
 
 Converged in 21 iterations to a total energy of -268.1820 eV
 
 Pseudo atomic calculation performed for O 2s2 2p4
 
 Converged in 23 iterations to a total energy of -432.6536 eV
 
 Pseudo atomic calculation performed for Si 3s2 3p2
 
 Converged in 11 iterations to a total energy of -165.0683 eV
 Calculation parallelised over 48 processes.
 Data is distributed by G-vector(48-way)

 ************************************ Title ************************************
 CASTEP calculation from BIOVIA Materials Studio 2024

 ***************************** General Parameters ******************************
  
 output verbosity                               : normal  (1)
 write checkpoint data to                       : Conf_0033.check
 type of calculation                            : geometry optimization
 stress calculation                             : off
 density difference calculation                 : off
 electron localisation func (ELF) calculation   : off
 Hirshfeld analysis                             : on
 polarisation (Berry phase) analysis            : off
 molecular orbital projected DOS                : off
 deltaSCF calculation                           : off
 unlimited duration calculation
 timing information                             : on
 memory usage estimate                          : on
 write extra output files                       : on
 write final potential to formatted file        : off
 write final density to formatted file          : off
 write BibTeX reference list                    : on
 write OTFG pseudopotential files               : on
 write electrostatic potential file             : on
 write bands file                               : on
 checkpoint writing                             : both castep_bin and check files
  
 output         length unit                     : A
 output           mass unit                     : amu
 output           time unit                     : ps
 output         charge unit                     : e
 output           spin unit                     : hbar/2
 output         energy unit                     : eV
 output          force unit                     : eV/A
 output       velocity unit                     : A/ps
 output       pressure unit                     : GPa
 output     inv_length unit                     : 1/A
 output      frequency unit                     : cm-1
 output force constant unit                     : eV/A**2
 output         volume unit                     : A**3
 output   IR intensity unit                     : (D/A)**2/amu
 output         dipole unit                     : D
 output         efield unit                     : eV/A/e
 output        entropy unit                     : J/mol/K
 output    efield chi2 unit                     : pm/V
  
 wavefunctions paging                           : none
 random number generator seed                   :   14023601
 data distribution                              : optimal for this architecture
 optimization strategy                          : balance speed and memory

 *********************** Exchange-Correlation Parameters ***********************
  
 using functional                               : Perdew Burke Ernzerhof
 relativistic treatment                         : Koelling-Harmon
 DFT+D: Semi-empirical dispersion correction    : on
 SEDC with                                      : G06 correction scheme

 ************************* Pseudopotential Parameters **************************
  
 pseudopotential representation                 : reciprocal space
 <beta|phi> representation                      : reciprocal space
 spin-orbit coupling                            : off

 **************************** Basis Set Parameters *****************************
  
 plane wave basis set cut-off                   :   600.0000   eV
 size of standard grid                          :     1.5000
 size of   fine   gmax                          :    18.8237   1/A
 largest prime factor in FFT                    :          5
 finite basis set correction                    : none

 **************************** Electronic Parameters ****************************
  
 number of  electrons                           :  74.00    
 net charge of system                           : +1.000    
 treating system as non-spin-polarized
 number of bands                                :         37

 ********************* Electronic Minimization Parameters **********************
  
 Method: Treating system as non-metallic,
         and number of  SD  steps               :          1
         and number of  CG  steps               :          4
  
 total energy / atom convergence tol.           : 0.2000E-05   eV
 eigen-energy convergence tolerance             : 0.1000E-05   eV
 max force / atom convergence tol.              : ignored
 convergence tolerance window                   :          3   cycles
 max. number of SCF cycles                      :        100
 periodic dipole correction                     : NONE

 ************************** Density Mixing Parameters **************************
  
 density-mixing scheme                          : Pulay
 max. length of mixing history                  :         20
 charge density mixing amplitude                : 0.5000    
 cut-off energy for mixing                      :  600.0       eV
 charge density mixing g-vector                 :  1.500       1/A

 *********************** Population Analysis Parameters ************************
  
 Population analysis with cutoff                :  3.000       A
 Population analysis output                     : summary and pdos components

 ********************** Geometry Optimization Parameters ***********************
  
 optimization method                            : LBFGS
 max. no. of LBFGS updates                      : unbounded
 preconditioned LBFGS is activated
 preconditioner type                            : EXP
     stabilization constant                     :     0.1000
     parameter A                                :     3.0000
     nearest neighbor distance                  : automatic
     cut-off distance                           : automatic
     parameter mu                               : automatic
 variable cell method                           : fixed basis quality
 max. number of steps                           :        300
 estimated bulk modulus                         :  500.0       GPa
 estimated <frequency>                          :  1668.       cm-1
 geom line minimiser                            : on
 with line minimiser tolerance                  :     0.4000
 total energy convergence tolerance             : 0.2000E-04   eV/atom
        max ionic |force| tolerance             : 0.5000E-01   eV/A
 max ionic |displacement| tolerance             : 0.2000E-02   A
   max |stress component| tolerance             : 0.1000       GPa
 convergence tolerance window                   :          2   steps
 backup results every                           :          5   steps
 write geom trajectory file                     : on

 *******************************************************************************
  
 
                           -------------------------------
                                      Unit Cell
                           -------------------------------
        Real Lattice(A)                      Reciprocal Lattice(1/A)
    13.4840002    -0.0000006    -0.0000006        0.465973392   0.000000000   0.000000000
     0.0000000    20.4006996    -0.0000009        0.000000013   0.307988717   0.000000000
     0.0000000     0.0000000    45.0000000        0.000000006   0.000000006   0.139626340
 
                       Lattice parameters(A)       Cell Angles
                    a =     13.484000          alpha =   90.000003
                    b =     20.400700          beta  =   90.000003
                    c =     45.000000          gamma =   90.000003
 
                       Current cell volume =         12378.736702       A**3
                                   density =             0.015698   AMU/A**3
                                           =             0.026068     g/cm^3
 
                           -------------------------------
                                     Cell Contents
                           -------------------------------
                         Total number of ions in cell =   32
                      Total number of species in cell =    5
                        Max number of any one species =   20
 
            xxxxxxxxxxxxxxxxxxxxxxxxxxxxxxxxxxxxxxxxxxxxxxxxxxxxxxxxxxxx
            x  Element    Atom        Fractional coordinates of atoms  x
            x            Number           u          v          w      x
            x----------------------------------------------------------x
            x  H            1         0.448024   0.402893   0.530426   x 
            x  H            2         0.462025   0.483956   0.515423   x 
            x  H            3         0.394361   0.451725   0.579503   x 
            x  H            4         0.408303   0.531929   0.564657   x 
            x  H            5         0.322422   0.374664   0.493681   x 
            x  H            6         0.213064   0.422583   0.490674   x 
            x  H            7         0.361593   0.514487   0.473278   x 
            x  H            8         0.279303   0.471597   0.450265   x 
            x  H            9         0.401627   0.382308   0.442452   x 
            x  H           10         0.486063   0.420026   0.467158   x 
            x  H           11         0.414380   0.518746   0.376606   x 
            x  H           12         0.599543   0.456828   0.385082   x 
            x  H           13         0.559624   0.576998   0.418686   x 
            x  H           14         0.272293   0.428525   0.538835   x 
            x  H           15         0.285538   0.501454   0.523758   x 
            x  H           16         0.576747   0.431264   0.571517   x 
            x  H           17         0.590082   0.511606   0.557144   x 
            x  H           18         0.640509   0.507661   0.610525   x 
            x  H           19         0.521123   0.478207   0.620744   x 
            x  H           20         0.534802   0.558884   0.606115   x 
            x  C            1         0.422459   0.454127   0.532068   x 
            x  C            2         0.436908   0.481289   0.563380   x 
            x  C            3         0.294379   0.425450   0.493139   x 
            x  C            4         0.338981   0.464433   0.466815   x 
            x  C            5         0.426073   0.430296   0.451132   x 
            x  C            6         0.546343   0.481482   0.572787   x 
            x  C            7         0.561456   0.507965   0.604247   x 
            x  N            1         0.310575   0.454736   0.523602   x 
            x  O            1         0.570901   0.440342   0.402802   x 
            x  O            2         0.524911   0.548691   0.431781   x 
            x  O            3         0.396640   0.496590   0.394342   x 
            x  Si           1         0.480963   0.479586   0.419113   x 
            xxxxxxxxxxxxxxxxxxxxxxxxxxxxxxxxxxxxxxxxxxxxxxxxxxxxxxxxxxxx
 
 
                         No user defined ionic velocities
 
                           -------------------------------
                                   Details of Species
                           -------------------------------
 
                               Mass of species in AMU
                                    H    1.0080000
                                    C   12.0109997
                                    N   14.0070000
                                    O   15.9989996
                                    Si   28.0849991
 
                          Electric Quadrupole Moment (Barn)
                                    H    0.0028600 Isotope  2
                                    C    0.0332700 Isotope 11
                                    N    0.0204400 Isotope 14
                                    O   -0.0255800 Isotope 17
                                    Si    1.0000000 No Isotope Defined
 
                          Files used for pseudopotentials:
                                    H 1|0.6|9|10|15|10UU(qc=8)[]
                                    C 2|1.4|11|12|14.7|20UU:21UU(qc=7)[]
                                    N 2|1.1|12|16|19|20UU:21UU(qc=7)[]
                                    O 2|1.1|14|18|21|20UU:21UU(qc=7)[]
                                    Si 3|1.8|3.6|5|7|30UU:31UU:32UU[]
 
                           -------------------------------
                              k-Points For BZ Sampling
                           -------------------------------
                       MP grid size for SCF calculation is  1  1  1
                            with an offset of   0.000  0.000  0.000
                       Number of kpoints used =             1
 
                           -------------------------------
                               Symmetry and Constraints
                           -------------------------------
 
                      Maximum deviation from symmetry =  0.00000         ANG
 
                      Number of symmetry operations   =           1
                      Number of nonlinear constraints =           3
         There are no ionic constraints specified or generated for this cell
                      Point group of crystal =     1: C1, 1, 1
                      Space group of crystal =     1: P1, P 1
 
             Set iprint > 1 for details on symmetry rotations/translations
 
                         Centre of mass is NOT constrained
 
                         Number of cell constraints= 6
                         Cell constraints are:  0 0 0 0 0 0
 
                         External pressure/stress (GPa)
                          0.00000   0.00000   0.00000
                                    0.00000   0.00000
                                              0.00000
 
                                --------------------
                                  DFT-D parameters
                                --------------------
 
                          Dispersion-correction scheme : G06       
                        Parameter s6 :   0.750000 (default)
                        Parameter d  :  20.000000 (default)
 
        xxxxxxxxxxxxxxxxxxxxxxxxxxxxxxxxxxxxxxxxxxxxxxxxxxxxxxxxxxxxxxxxxxxx
        x              Atomic DFT-D parameters                             x
        x  Species      C6            R0                                   x
        x               eV A^6        Ang                                  x
        x------------------------------------------------------------------x
        x  H             1.4510       1.0010   (default)                   x
        x  C            18.1375       1.4520   (default)                   x
        x  N            12.7481       1.3970   (default)                   x
        x  O             7.2550       1.3420   (default)                   x
        x  Si           95.6622       1.7160   (default)                   x
        xxxxxxxxxxxxxxxxxxxxxxxxxxxxxxxxxxxxxxxxxxxxxxxxxxxxxxxxxxxxxxxxxxxx
 
 
+---------------- MEMORY AND SCRATCH DISK ESTIMATES PER PROCESS --------------+
|                                                     Memory          Disk    |
| Baseline code, static data and system overhead     6530.0 MB         0.0 MB |
| BLAS internal memory storage                          0.0 MB         0.0 MB |
| Model and support data                              540.6 MB         0.0 MB |
| Electronic energy minimisation requirements          31.8 MB         0.0 MB |
| Force calculation requirements                        6.8 MB         0.0 MB |
|                                               ----------------------------- |
| Approx. total storage required per process         7102.3 MB         0.0 MB |
|                                                                             |
| Requirements will fluctuate during execution and may exceed these estimates |
+-----------------------------------------------------------------------------+
Calculating approximate eigenstates for fixed initial Hamiltonian
Cut-off for approx. calculation is  119.774 eV
Improving approx. states at cut-off of  300.000 eV
Resetting cut-off to  600.000 eV
Calculating total energy with cut-off of  600.000 eV.
------------------------------------------------------------------------ <-- SCF
SCF loop      Energy                           Energy gain       Timer   <-- SCF
                                               per atom          (sec)   <-- SCF
------------------------------------------------------------------------ <-- SCF
Initial  -2.96913002E+003                                         31.50  <-- SCF
      1  -3.20400356E+003                    7.33979810E+000      32.36  <-- SCF
      2  -3.20435670E+003                    1.10356818E-002      33.25  <-- SCF
      3  -3.19268358E+003                   -3.64784837E-001      34.29  <-- SCF
      4  -3.19148597E+003                   -3.74254345E-002      35.52  <-- SCF
      5  -3.19081601E+003                   -2.09363270E-002      36.54  <-- SCF
      6  -3.19071455E+003                   -3.17043499E-003      37.84  <-- SCF
      7  -3.19063225E+003                   -2.57190185E-003      38.85  <-- SCF
      8  -3.19061652E+003                   -4.91631044E-004      39.98  <-- SCF
      9  -3.19059926E+003                   -5.39299971E-004      40.99  <-- SCF
     10  -3.19057984E+003                   -6.06850289E-004      42.04  <-- SCF
     11  -3.19055188E+003                   -8.73822094E-004      43.11  <-- SCF
     12  -3.19050827E+003                   -1.36270933E-003      44.14  <-- SCF
     13  -3.19045078E+003                   -1.79652974E-003      45.15  <-- SCF
     14  -3.19038157E+003                   -2.16297323E-003      46.18  <-- SCF
     15  -3.19032245E+003                   -1.84750109E-003      47.20  <-- SCF
     16  -3.19027961E+003                   -1.33880875E-003      48.18  <-- SCF
     17  -3.19024051E+003                   -1.22191400E-003      49.17  <-- SCF
     18  -3.19021899E+003                   -6.72525539E-004      50.19  <-- SCF
     19  -3.19019915E+003                   -6.19795653E-004      51.14  <-- SCF
     20  -3.19017140E+003                   -8.67110633E-004      52.12  <-- SCF
     21  -3.19014522E+003                   -8.18356975E-004      53.11  <-- SCF
     22  -3.19013167E+003                   -4.23452546E-004      53.96  <-- SCF
     23  -3.19012253E+003                   -2.85475747E-004      55.00  <-- SCF
     24  -3.19012510E+003                    8.03287818E-005      56.04  <-- SCF
     25  -3.19012638E+003                    3.98555396E-005      57.03  <-- SCF
     26  -3.19013085E+003                    1.39749924E-004      57.90  <-- SCF
     27  -3.19013547E+003                    1.44309590E-004      58.69  <-- SCF
     28  -3.19014059E+003                    1.60083441E-004      59.52  <-- SCF
     29  -3.19014446E+003                    1.20857531E-004      60.32  <-- SCF
     30  -3.19014749E+003                    9.48073910E-005      61.12  <-- SCF
     31  -3.19014977E+003                    7.11187901E-005      61.92  <-- SCF
     32  -3.19015232E+003                    7.96742653E-005      62.71  <-- SCF
     33  -3.19015343E+003                    3.49358786E-005      63.50  <-- SCF
     34  -3.19015438E+003                    2.94689829E-005      64.30  <-- SCF
     35  -3.19015541E+003                    3.21286497E-005      65.12  <-- SCF
     36  -3.19015583E+003                    1.33498102E-005      65.94  <-- SCF
     37  -3.19015637E+003                    1.67712848E-005      66.74  <-- SCF
     38  -3.19015677E+003                    1.24283121E-005      67.54  <-- SCF
     39  -3.19015717E+003                    1.24932332E-005      68.33  <-- SCF
     40  -3.19015749E+003                    1.00094544E-005      69.12  <-- SCF
     41  -3.19015771E+003                    6.81633052E-006      69.92  <-- SCF
     42  -3.19015795E+003                    7.67819275E-006      70.71  <-- SCF
     43  -3.19015803E+003                    2.58311337E-006      71.51  <-- SCF
     44  -3.19015815E+003                    3.74785477E-006      72.30  <-- SCF
     45  -3.19015825E+003                    2.99579667E-006      73.09  <-- SCF
     46  -3.19015828E+003                    9.68277683E-007      73.88  <-- SCF
     47  -3.19015833E+003                    1.52653231E-006      74.68  <-- SCF
     48  -3.19015835E+003                    5.35819284E-007      75.47  <-- SCF
     49  -3.19015836E+003                    4.01697373E-007      76.26  <-- SCF
------------------------------------------------------------------------ <-- SCF
 
Final energy =  -3190.158359258     eV
(energy not corrected for finite basis set)
 
(SEDC) Total Energy Correction : -0.754205E+00 eV

Dispersion corrected final energy* =  -3190.912564203     eV

Writing analysis data to Conf_0033.castep_bin

Writing model to Conf_0033.check

WARNING - nonlinear constraints cannot be used with LBFGS algorithm
        - consider setting geom_method=DELOCALIZED
 
        => Turning nonlinear constraints OFF
 
+---------------- MEMORY AND SCRATCH DISK ESTIMATES PER PROCESS --------------+
|                                                     Memory          Disk    |
| Model and support data                              550.1 MB         0.0 MB |
| Electronic energy minimisation requirements          31.8 MB         0.0 MB |
| Geometry minimisation requirements                   34.8 MB         0.0 MB |
|                                               ----------------------------- |
| Approx. total storage required per process          616.7 MB         0.0 MB |
|                                                                             |
| Requirements will fluctuate during execution and may exceed these estimates |
+-----------------------------------------------------------------------------+
 
 
 ************************************** Forces **************************************
 *                                                                                  *
 *                           Cartesian components (eV/A)                            *
 * -------------------------------------------------------------------------------- *
 *                         x                    y                    z              *
 *                                                                                  *
 * H               1     -0.21985              0.15187             -0.09784         *
 * H               2     -0.25348             -0.10639             -0.00336         *
 * H               3     -0.04001              0.01987             -0.04603         *
 * H               4     -0.01722             -0.02034             -0.05123         *
 * H               5      0.06401              0.19410              0.11560         *
 * H               6      0.12858             -0.03551              0.02692         *
 * H               7     -0.08777             -0.02856              0.24423         *
 * H               8      0.08513             -0.00696              0.22360         *
 * H               9      0.05154              0.08505             -0.00490         *
 * H              10      0.04540              0.04037             -0.10038         *
 * H              11      0.15889              0.44470             -0.87206         *
 * H              12      0.38818              0.29508             -0.90087         *
 * H              13      0.48546              0.67013             -0.55897         *
 * H              14     -0.33196             -0.27003              0.53606         *
 * H              15     -0.19777              0.66513              0.09325         *
 * H              16     -0.11516              0.02735             -0.06074         *
 * H              17     -0.13063             -0.07683             -0.03081         *
 * H              18     -0.17450             -0.01693             -0.08371         *
 * H              19      0.04202              0.02666             -0.06653         *
 * H              20      0.01684             -0.08676             -0.00995         *
 * C               1     -0.34637              0.28555              0.42877         *
 * C               2      0.00311              0.02336              0.01209         *
 * C               3     -0.70392             -0.13582             -0.50958         *
 * C               4     -0.10470              0.13663             -0.19861         *
 * C               5      0.25470              0.13726             -0.22071         *
 * C               6      0.25864             -0.02727             -0.05707         *
 * C               7     -0.07058              0.07458              0.15248         *
 * N               1      2.21138             -0.73495             -0.98827         *
 * O               1      0.03132             -1.12396              1.04961         *
 * O               2     -0.41969             -0.06868              1.57389         *
 * O               3     -1.17800             -0.62906              0.84497         *
 * Si              1      0.16640              0.09035             -0.43988         *
 *                                                                                  *
 ************************************************************************************
 EXP precond LBFGS => estimated nearest neighbor distance :  1.628       A
 EXP precond LBFGS => estimated cutoff distance :  3.256       A
 doing test perturbation to get energy scale for EXP preconditioner
 
                           -------------------------------
                                     Cell Contents
                           -------------------------------
 
            xxxxxxxxxxxxxxxxxxxxxxxxxxxxxxxxxxxxxxxxxxxxxxxxxxxxxxxxxxxxxxxxx
            x  Element         Atom        Fractional coordinates of atoms  x
            x                 Number           u          v          w      x
            x---------------------------------------------------------------x
            x  H                 1         0.449070   0.403622   0.530724   x
            x  H                 2         0.463090   0.484500   0.515733   x
            x  H                 3         0.395323   0.452354   0.579754   x
            x  H                 4         0.409288   0.532320   0.564924   x
            x  H                 5         0.323249   0.375431   0.494006   x
            x  H                 6         0.213641   0.423277   0.491002   x
            x  H                 7         0.362497   0.514936   0.473616   x
            x  H                 8         0.280037   0.472175   0.450613   x
            x  H                 9         0.402602   0.383066   0.442804   x
            x  H                10         0.487158   0.420724   0.467499   x
            x  H                11         0.415376   0.519181   0.376967   x
            x  H                12         0.600733   0.457445   0.385444   x
            x  H                13         0.560790   0.577226   0.419044   x
            x  H                14         0.273011   0.429206   0.539126   x
            x  H                15         0.286285   0.501946   0.524062   x
            x  H                16         0.577925   0.431940   0.571776   x
            x  H                17         0.591268   0.512065   0.557418   x
            x  H                18         0.641714   0.508133   0.610741   x
            x  H                19         0.522256   0.478767   0.620948   x
            x  H                20         0.535948   0.559179   0.606336   x
            x  C                 1         0.423467   0.454751   0.532365   x
            x  C                 2         0.437939   0.481840   0.563648   x
            x  C                 3         0.295146   0.426138   0.493465   x
            x  C                 4         0.339841   0.465030   0.467156   x
            x  C                 5         0.427087   0.430974   0.451480   x
            x  C                 6         0.547499   0.482033   0.573046   x
            x  C                 7         0.562624   0.508436   0.604471   x
            x  N                 1         0.311377   0.455358   0.523905   x
            x  O                 1         0.572075   0.440998   0.403163   x
            x  O                 2         0.526048   0.549024   0.432136   x
            x  O                 3         0.397606   0.497096   0.394703   x
            x  Si                1         0.482052   0.480142   0.419471   x
            xxxxxxxxxxxxxxxxxxxxxxxxxxxxxxxxxxxxxxxxxxxxxxxxxxxxxxxxxxxxxxxxx
 
 
------------------------------------------------------------------------ <-- SCF
SCF loop      Energy                           Energy gain       Timer   <-- SCF
                                               per atom          (sec)   <-- SCF
------------------------------------------------------------------------ <-- SCF
Initial  -3.19105012E+003                                         78.27  <-- SCF
      1  -3.19013291E+003                   -2.86628158E-002      79.07  <-- SCF
      2  -3.19015562E+003                    7.09783294E-004      80.25  <-- SCF
      3  -3.19013195E+003                   -7.39929816E-004      81.30  <-- SCF
      4  -3.19014670E+003                    4.61066782E-004      82.31  <-- SCF
      5  -3.19014685E+003                    4.61234064E-006      83.14  <-- SCF
      6  -3.19014698E+003                    4.12247943E-006      83.91  <-- SCF
      7  -3.19014704E+003                    1.77752823E-006      84.68  <-- SCF
      8  -3.19014708E+003                    1.24208883E-006      85.44  <-- SCF
      9  -3.19014712E+003                    1.46034302E-006      86.21  <-- SCF
     10  -3.19014715E+003                    7.16434264E-007      86.98  <-- SCF
     11  -3.19014719E+003                    1.23171471E-006      87.75  <-- SCF
------------------------------------------------------------------------ <-- SCF
 
Final energy =  -3190.147185531     eV
(energy not corrected for finite basis set)
 
(SEDC) Total Energy Correction : -0.753902E+00 eV

Dispersion corrected final energy* =  -3190.901087578     eV
 
 ************************************** Forces **************************************
 *                                                                                  *
 *                           Cartesian components (eV/A)                            *
 * -------------------------------------------------------------------------------- *
 *                         x                    y                    z              *
 *                                                                                  *
 * H               1     -0.22487              0.07988             -0.10884         *
 * H               2     -0.26074             -0.08942             -0.03384         *
 * H               3     -0.01490             -0.01317             -0.02418         *
 * H               4     -0.02792              0.06100             -0.03405         *
 * H               5      0.06225              0.15209              0.11596         *
 * H               6      0.20721             -0.03275              0.03551         *
 * H               7     -0.08339              0.04152              0.25123         *
 * H               8      0.11628              0.02491              0.23359         *
 * H               9      0.04499              0.03811             -0.01065         *
 * H              10      0.01650              0.03695             -0.10209         *
 * H              11      0.16236              0.45875             -0.92180         *
 * H              12      0.38431              0.29626             -0.90913         *
 * H              13      0.50800              0.71771             -0.58100         *
 * H              14     -0.32096             -0.30905              0.55371         *
 * H              15     -0.21364              0.76305              0.10212         *
 * H              16     -0.10324             -0.02712             -0.06662         *
 * H              17     -0.11924             -0.01663             -0.06112         *
 * H              18     -0.16939             -0.00099             -0.07754         *
 * H              19      0.02777             -0.00946             -0.03736         *
 * H              20     -0.01013              0.01521              0.00230         *
 * C               1     -0.39664              0.29477              0.42235         *
 * C               2      0.05931             -0.01668              0.01681         *
 * C               3     -0.76797             -0.14969             -0.52447         *
 * C               4     -0.12623              0.09948             -0.24964         *
 * C               5      0.24562              0.13578             -0.19547         *
 * C               6      0.19363             -0.01864             -0.07326         *
 * C               7     -0.01757              0.03366              0.15981         *
 * N               1      2.27459             -0.77324             -0.94421         *
 * O               1      0.03335             -1.14543              1.04193         *
 * O               2     -0.41787             -0.01016              1.63013         *
 * O               3     -1.16593             -0.64965              0.88139         *
 * Si              1      0.10446              0.01293             -0.49153         *
 *                                                                                  *
 ************************************************************************************
 EXP precond LBFGS => estimated parameter mu :  1.487       eV/A**2
 LBFGS: finished iteration     0 with enthalpy= -3.19091256E+003 eV
  
 +-----------+-----------------+-----------------+------------+-----+ <-- LBFGS
 | Parameter |      value      |    tolerance    |    units   | OK? | <-- LBFGS
 +-----------+-----------------+-----------------+------------+-----+ <-- LBFGS
 |  dE/ion   |   0.000000E+000 |   2.000000E-005 |         eV | No  | <-- LBFGS
 |  |F|max   |   2.581321E+000 |   5.000000E-002 |       eV/A | No  | <-- LBFGS
 |  |dR|max  |   3.454013E-015 |   2.000000E-003 |          A | No  | <-- LBFGS
 +-----------+-----------------+-----------------+------------+-----+ <-- LBFGS
  

================================================================================
 Starting LBFGS iteration          1 ...
================================================================================
  
 +------------+-------------+-------------+-----------------+ <-- min LBFGS
 |    Step    |   lambda    |   F.delta'  |    enthalpy     | <-- min LBFGS
 +------------+-------------+-------------+-----------------+ <-- min LBFGS
 |  previous  |    0.000000 |    1.878058 |    -3190.912564 | <-- min LBFGS
 +------------+-------------+-------------+-----------------+ <-- min LBFGS
  

--------------------------------------------------------------------------------
 LBFGS: starting iteration         1 with trial guess (lambda=  0.642581)
--------------------------------------------------------------------------------
 
                           -------------------------------
                                     Cell Contents
                           -------------------------------
 
            xxxxxxxxxxxxxxxxxxxxxxxxxxxxxxxxxxxxxxxxxxxxxxxxxxxxxxxxxxxxxxxxx
            x  Element         Atom        Fractional coordinates of atoms  x
            x                 Number           u          v          w      x
            x---------------------------------------------------------------x
            x  H                 1         0.447663   0.404172   0.529610   x
            x  H                 2         0.461580   0.484426   0.514785   x
            x  H                 3         0.394488   0.452326   0.578590   x
            x  H                 4         0.408544   0.532414   0.563731   x
            x  H                 5         0.324663   0.375683   0.492972   x
            x  H                 6         0.215914   0.422779   0.489805   x
            x  H                 7         0.362560   0.515108   0.473402   x
            x  H                 8         0.280904   0.472203   0.450371   x
            x  H                 9         0.403482   0.383240   0.442337   x
            x  H                10         0.487850   0.420848   0.466897   x
            x  H                11         0.403945   0.517673   0.377022   x
            x  H                12         0.602864   0.451543   0.385918   x
            x  H                13         0.560547   0.581435   0.422401   x
            x  H                14         0.275950   0.427735   0.538470   x
            x  H                15         0.289714   0.503366   0.522841   x
            x  H                16         0.575568   0.431747   0.570484   x
            x  H                17         0.588819   0.511700   0.556163   x
            x  H                18         0.638168   0.507934   0.609485   x
            x  H                19         0.520064   0.478656   0.619739   x
            x  H                20         0.533608   0.558919   0.605201   x
            x  C                 1         0.422551   0.455280   0.531630   x
            x  C                 2         0.437114   0.481893   0.562535   x
            x  C                 3         0.295194   0.425653   0.491934   x
            x  C                 4         0.340193   0.465314   0.466405   x
            x  C                 5         0.428184   0.431174   0.450915   x
            x  C                 6         0.546220   0.481808   0.571801   x
            x  C                 7         0.559978   0.508391   0.603414   x
            x  N                 1         0.319495   0.453935   0.522053   x
            x  O                 1         0.572352   0.432179   0.405846   x
            x  O                 2         0.522233   0.550669   0.437537   x
            x  O                 3         0.382460   0.492947   0.396763   x
            x  Si                1         0.479142   0.478181   0.420679   x
            xxxxxxxxxxxxxxxxxxxxxxxxxxxxxxxxxxxxxxxxxxxxxxxxxxxxxxxxxxxxxxxxx
 
 
------------------------------------------------------------------------ <-- SCF
SCF loop      Energy                           Energy gain       Timer   <-- SCF
                                               per atom          (sec)   <-- SCF
------------------------------------------------------------------------ <-- SCF
Initial  -3.21666058E+003                                         89.09  <-- SCF
      1  -3.18556037E+003                   -9.71881611E-001      89.92  <-- SCF
      2  -3.19004234E+003                    1.40061545E-001      91.22  <-- SCF
      3  -3.18932721E+003                   -2.23477276E-002      92.34  <-- SCF
      4  -3.18946659E+003                    4.35562244E-003      93.38  <-- SCF
      5  -3.18949934E+003                    1.02353301E-003      94.55  <-- SCF
      6  -3.18950382E+003                    1.39884432E-004      95.66  <-- SCF
      7  -3.18950472E+003                    2.81016848E-005      96.54  <-- SCF
      8  -3.18950545E+003                    2.29302791E-005      97.42  <-- SCF
      9  -3.18950578E+003                    1.03261269E-005      98.22  <-- SCF
     10  -3.18950594E+003                    5.04429450E-006      99.03  <-- SCF
     11  -3.18950601E+003                    2.22572660E-006      99.80  <-- SCF
     12  -3.18950593E+003                   -2.48849996E-006     100.57  <-- SCF
     13  -3.18950599E+003                    1.62355634E-006     101.34  <-- SCF
     14  -3.18950605E+003                    1.96351782E-006     102.11  <-- SCF
     15  -3.18950623E+003                    5.55079620E-006     102.88  <-- SCF
     16  -3.18950636E+003                    4.09374441E-006     103.66  <-- SCF
     17  -3.18950657E+003                    6.49083325E-006     104.43  <-- SCF
     18  -3.18950669E+003                    3.80560063E-006     105.22  <-- SCF
     19  -3.18950679E+003                    3.37275128E-006     106.01  <-- SCF
     20  -3.18950689E+003                    3.08215641E-006     106.79  <-- SCF
     21  -3.18950697E+003                    2.27253498E-006     107.57  <-- SCF
     22  -3.18950701E+003                    1.26920461E-006     108.36  <-- SCF
     23  -3.18950708E+003                    2.33580843E-006     109.15  <-- SCF
     24  -3.18950708E+003                   -1.92423404E-007     109.93  <-- SCF
     25  -3.18950714E+003                    2.03568912E-006     110.77  <-- SCF
     26  -3.18950716E+003                    5.49106194E-007     111.56  <-- SCF
     27  -3.18950723E+003                    2.19424545E-006     112.36  <-- SCF
     28  -3.18950725E+003                    7.36988760E-007     113.15  <-- SCF
     29  -3.18950731E+003                    1.72495077E-006     113.93  <-- SCF
     30  -3.18950735E+003                    1.46491668E-006     114.72  <-- SCF
     31  -3.18950741E+003                    1.86356074E-006     115.51  <-- SCF
     32  -3.18950749E+003                    2.53982100E-006     116.30  <-- SCF
     33  -3.18950753E+003                    1.17211184E-006     117.09  <-- SCF
     34  -3.18950760E+003                    2.21296106E-006     117.87  <-- SCF
     35  -3.18950764E+003                    1.11974489E-006     118.66  <-- SCF
     36  -3.18950769E+003                    1.54836493E-006     119.45  <-- SCF
     37  -3.18950773E+003                    1.35124727E-006     120.24  <-- SCF
     38  -3.18950777E+003                    1.28126385E-006     121.03  <-- SCF
     39  -3.18950780E+003                    7.04998472E-007     121.81  <-- SCF
------------------------------------------------------------------------ <-- SCF
 
Final energy =  -3189.507795477     eV
(energy not corrected for finite basis set)
 
(SEDC) Total Energy Correction : -0.764584E+00 eV

Dispersion corrected final energy* =  -3190.272379839     eV
 
 ************************************** Forces **************************************
 *                                                                                  *
 *                           Cartesian components (eV/A)                            *
 * -------------------------------------------------------------------------------- *
 *                         x                    y                    z              *
 *                                                                                  *
 * H               1      0.23378              0.03924              0.08450         *
 * H               2      0.21031              0.01979              0.04789         *
 * H               3     -0.07534              0.00761              0.02830         *
 * H               4     -0.03565              0.07405              0.00877         *
 * H               5      0.04029             -0.15699             -0.18829         *
 * H               6     -0.75453              0.04266              0.22075         *
 * H               7     -0.09186             -0.06271              0.16456         *
 * H               8     -0.22606              0.19217             -0.36640         *
 * H               9      0.04059              0.02230             -0.01700         *
 * H              10      0.07789              0.01195              0.03644         *
 * H              11     -0.99288             -1.56636              2.68701         *
 * H              12     -1.25890             -1.29849              2.76159         *
 * H              13     -1.57952             -1.87267              2.10472         *
 * H              14      0.98535              0.87670             -1.13609         *
 * H              15      0.69416             -1.60295             -0.04834         *
 * H              16      0.03985             -0.15446             -0.04021         *
 * H              17      0.12047              0.10918             -0.17864         *
 * H              18      0.25342              0.01647              0.06876         *
 * H              19     -0.08872             -0.11970              0.07445         *
 * H              20     -0.06601              0.16364             -0.01933         *
 * C               1      1.21630             -0.40558             -0.51857         *
 * C               2     -0.14209              0.11972              0.25054         *
 * C               3      1.11765             -0.06204              0.03202         *
 * C               4      0.33677             -0.11964             -0.03656         *
 * C               5     -0.69051             -0.69340              1.11262         *
 * C               6     -0.08495              0.07966              0.29453         *
 * C               7     -0.05561             -0.10687             -0.28724         *
 * N               1     -3.63457              1.01524              1.45080         *
 * O               1      0.23854              2.19838             -2.26155         *
 * O               2      0.88682              0.13062             -3.01372         *
 * O               3      2.24450              1.34682             -1.75870         *
 * Si              1      1.04051              1.75567             -1.55763         *
 *                                                                                  *
 ************************************************************************************
  
 +------------+-------------+-------------+-----------------+ <-- min LBFGS
 |    Step    |   lambda    |   F.delta'  |    enthalpy     | <-- min LBFGS
 +------------+-------------+-------------+-----------------+ <-- min LBFGS
 |  previous  |    0.000000 |    1.878058 |    -3190.912564 | <-- min LBFGS
 | trial step |    0.642581 |   -3.312975 |    -3190.272380 | <-- min LBFGS
 +------------+-------------+-------------+-----------------+ <-- min LBFGS
  

--------------------------------------------------------------------------------
 LBFGS: improving iteration         1 with line minimization (lambda=  0.232479)
--------------------------------------------------------------------------------
 
                           -------------------------------
                                     Cell Contents
                           -------------------------------
 
            xxxxxxxxxxxxxxxxxxxxxxxxxxxxxxxxxxxxxxxxxxxxxxxxxxxxxxxxxxxxxxxxx
            x  Element         Atom        Fractional coordinates of atoms  x
            x                 Number           u          v          w      x
            x---------------------------------------------------------------x
            x  H                 1         0.447894   0.403356   0.530131   x
            x  H                 2         0.461864   0.484126   0.515192   x
            x  H                 3         0.394407   0.451942   0.579173   x
            x  H                 4         0.408390   0.532104   0.564322   x
            x  H                 5         0.323233   0.375033   0.493424   x
            x  H                 6         0.214095   0.422654   0.490360   x
            x  H                 7         0.361943   0.514711   0.473323   x
            x  H                 8         0.279882   0.471816   0.450303   x
            x  H                 9         0.402298   0.382645   0.442411   x
            x  H                10         0.486709   0.420323   0.467064   x
            x  H                11         0.410605   0.518357   0.376757   x
            x  H                12         0.600745   0.454916   0.385385   x
            x  H                13         0.559958   0.578603   0.420030   x
            x  H                14         0.273616   0.428239   0.538703   x
            x  H                15         0.287048   0.502146   0.523427   x
            x  H                16         0.576320   0.431439   0.571143   x
            x  H                17         0.589625   0.511640   0.556789   x
            x  H                18         0.639662   0.507760   0.610149   x
            x  H                19         0.520740   0.478369   0.620380   x
            x  H                20         0.534370   0.558896   0.605784   x
            x  C                 1         0.422492   0.454544   0.531910   x
            x  C                 2         0.436983   0.481507   0.563075   x
            x  C                 3         0.294674   0.425524   0.492703   x
            x  C                 4         0.339419   0.464751   0.466667   x
            x  C                 5         0.426837   0.430614   0.451054   x
            x  C                 6         0.546298   0.481600   0.572431   x
            x  C                 7         0.560921   0.508119   0.603946   x
            x  N                 1         0.313802   0.454446   0.523041   x
            x  O                 1         0.571426   0.437389   0.403904   x
            x  O                 2         0.523942   0.549407   0.433864   x
            x  O                 3         0.391510   0.495272   0.395218   x
            x  Si                1         0.480304   0.479078   0.419680   x
            xxxxxxxxxxxxxxxxxxxxxxxxxxxxxxxxxxxxxxxxxxxxxxxxxxxxxxxxxxxxxxxxx
 
 
------------------------------------------------------------------------ <-- SCF
SCF loop      Energy                           Energy gain       Timer   <-- SCF
                                               per atom          (sec)   <-- SCF
------------------------------------------------------------------------ <-- SCF
Initial  -3.20885298E+003                                        123.17  <-- SCF
      1  -3.18965992E+003                   -5.99783140E-001     124.03  <-- SCF
      2  -3.19060392E+003                    2.94999951E-002     125.13  <-- SCF
      3  -3.19020732E+003                   -1.23937810E-002     126.16  <-- SCF
      4  -3.19033251E+003                    3.91240811E-003     127.24  <-- SCF
      5  -3.19036343E+003                    9.66295218E-004     128.36  <-- SCF
      6  -3.19036417E+003                    2.28971365E-005     129.27  <-- SCF
      7  -3.19036457E+003                    1.25227057E-005     130.03  <-- SCF
      8  -3.19036470E+003                    4.12234317E-006     130.83  <-- SCF
      9  -3.19036481E+003                    3.58013787E-006     131.60  <-- SCF
     10  -3.19036493E+003                    3.74595865E-006     132.37  <-- SCF
     11  -3.19036514E+003                    6.56172052E-006     133.14  <-- SCF
     12  -3.19036536E+003                    6.66945718E-006     133.92  <-- SCF
     13  -3.19036549E+003                    4.08583423E-006     134.69  <-- SCF
     14  -3.19036568E+003                    5.98023217E-006     135.47  <-- SCF
     15  -3.19036575E+003                    2.30596310E-006     136.24  <-- SCF
     16  -3.19036582E+003                    1.95160508E-006     137.02  <-- SCF
     17  -3.19036585E+003                    1.02047618E-006     137.80  <-- SCF
     18  -3.19036587E+003                    7.44268283E-007     138.58  <-- SCF
------------------------------------------------------------------------ <-- SCF
 
Final energy =  -3190.365872557     eV
(energy not corrected for finite basis set)
 
(SEDC) Total Energy Correction : -0.758164E+00 eV

Dispersion corrected final energy* =  -3191.124036850     eV
 
 ************************************** Forces **************************************
 *                                                                                  *
 *                           Cartesian components (eV/A)                            *
 * -------------------------------------------------------------------------------- *
 *                         x                    y                    z              *
 *                                                                                  *
 * H               1     -0.06669              0.11662             -0.03432         *
 * H               2     -0.09532             -0.06368              0.01977         *
 * H               3     -0.05131              0.01489             -0.01794         *
 * H               4     -0.02184              0.01391             -0.03200         *
 * H               5      0.05953              0.06941              0.00970         *
 * H               6     -0.16797             -0.00473              0.09549         *
 * H               7     -0.08823             -0.03680              0.22188         *
 * H               8     -0.02101              0.05756              0.02031         *
 * H               9      0.05059              0.06244             -0.00356         *
 * H              10      0.05611              0.03473             -0.04604         *
 * H              11     -0.33795             -0.48050              0.77473         *
 * H              12     -0.40250             -0.44612              0.78294         *
 * H              13     -0.46901             -0.51260              0.65530         *
 * H              14      0.21491              0.23705             -0.16199         *
 * H              15      0.16941             -0.30502              0.05011         *
 * H              16     -0.05380             -0.04099             -0.04860         *
 * H              17     -0.04031             -0.00950             -0.07862         *
 * H              18     -0.02427             -0.00076             -0.02490         *
 * H              19     -0.00284             -0.02380             -0.01571         *
 * H              20     -0.01218              0.00142             -0.00720         *
 * C               1      0.08671              0.03873              0.05912         *
 * C               2     -0.04786              0.05755              0.09780         *
 * C               3     -0.07289             -0.10523             -0.31222         *
 * C               4      0.05369              0.04149             -0.13862         *
 * C               5     -0.04512             -0.10226              0.17935         *
 * C               6      0.13400              0.01524              0.07483         *
 * C               7     -0.06223              0.01050             -0.00167         *
 * N               1      0.12259             -0.04953             -0.07888         *
 * O               1      0.21830              0.27060             -0.46796         *
 * O               2      0.17158              0.04897             -0.40321         *
 * O               3      0.22089              0.26856             -0.35832         *
 * Si              1      0.52500              0.82183             -0.80958         *
 *                                                                                  *
 ************************************************************************************
  
 +------------+-------------+-------------+-----------------+ <-- min LBFGS
 |    Step    |   lambda    |   F.delta'  |    enthalpy     | <-- min LBFGS
 +------------+-------------+-------------+-----------------+ <-- min LBFGS
 |  previous  |    0.000000 |    1.878058 |    -3190.912564 | <-- min LBFGS
 | trial step |    0.642581 |   -3.312975 |    -3190.272380 | <-- min LBFGS
 |  line step |    0.232479 |   -0.232001 |    -3191.124037 | <-- min LBFGS
 +------------+-------------+-------------+-----------------+ <-- min LBFGS
  
 LBFGS: finished iteration     1 with enthalpy= -3.19112404E+003 eV
  
 +-----------+-----------------+-----------------+------------+-----+ <-- LBFGS
 | Parameter |      value      |    tolerance    |    units   | OK? | <-- LBFGS
 +-----------+-----------------+-----------------+------------+-----+ <-- LBFGS
 |  dE/ion   |   6.608520E-003 |   2.000000E-005 |         eV | No  | <-- LBFGS
 |  |F|max   |   1.267463E+000 |   5.000000E-002 |       eV/A | No  | <-- LBFGS
 |  |dR|max  |   9.572520E-002 |   2.000000E-003 |          A | No  | <-- LBFGS
 +-----------+-----------------+-----------------+------------+-----+ <-- LBFGS
  

================================================================================
 Starting LBFGS iteration          2 ...
================================================================================
  
 +------------+-------------+-------------+-----------------+ <-- min LBFGS
 |    Step    |   lambda    |   F.delta'  |    enthalpy     | <-- min LBFGS
 +------------+-------------+-------------+-----------------+ <-- min LBFGS
 |  previous  |    0.000000 |    0.761515 |    -3191.124037 | <-- min LBFGS
 +------------+-------------+-------------+-----------------+ <-- min LBFGS
  

--------------------------------------------------------------------------------
 LBFGS: starting iteration         2 with trial guess (lambda=  0.908633)
--------------------------------------------------------------------------------
 
                           -------------------------------
                                     Cell Contents
                           -------------------------------
 
            xxxxxxxxxxxxxxxxxxxxxxxxxxxxxxxxxxxxxxxxxxxxxxxxxxxxxxxxxxxxxxxxx
            x  Element         Atom        Fractional coordinates of atoms  x
            x                 Number           u          v          w      x
            x---------------------------------------------------------------x
            x  H                 1         0.448546   0.405272   0.528951   x
            x  H                 2         0.462286   0.484816   0.514265   x
            x  H                 3         0.394695   0.453105   0.577972   x
            x  H                 4         0.408914   0.533151   0.563098   x
            x  H                 5         0.326043   0.376400   0.492345   x
            x  H                 6         0.215784   0.423205   0.489326   x
            x  H                 7         0.362923   0.515485   0.473511   x
            x  H                 8         0.281521   0.473086   0.450136   x
            x  H                 9         0.404845   0.384227   0.442328   x
            x  H                10         0.489187   0.421662   0.466788   x
            x  H                11         0.400582   0.513800   0.381020   x
            x  H                12         0.596990   0.448480   0.389545   x
            x  H                13         0.552951   0.574812   0.425247   x
            x  H                14         0.279092   0.429145   0.537402   x
            x  H                15         0.292488   0.502448   0.522225   x
            x  H                16         0.575529   0.432117   0.569758   x
            x  H                17         0.588878   0.512236   0.555375   x
            x  H                18         0.637815   0.508414   0.608756   x
            x  H                19         0.519759   0.479034   0.619035   x
            x  H                20         0.533260   0.559455   0.604503   x
            x  C                 1         0.423996   0.455961   0.531041   x
            x  C                 2         0.437463   0.482706   0.562021   x
            x  C                 3         0.296164   0.425959   0.491102   x
            x  C                 4         0.341198   0.465983   0.466055   x
            x  C                 5         0.429061   0.431709   0.451068   x
            x  C                 6         0.546702   0.482386   0.571205   x
            x  C                 7         0.559573   0.508888   0.602709   x
            x  N                 1         0.321294   0.454352   0.521322   x
            x  O                 1         0.570581   0.432366   0.406954   x
            x  O                 2         0.519241   0.547082   0.438227   x
            x  O                 3         0.382920   0.492453   0.398390   x
            x  Si                1         0.481729   0.481134   0.420058   x
            xxxxxxxxxxxxxxxxxxxxxxxxxxxxxxxxxxxxxxxxxxxxxxxxxxxxxxxxxxxxxxxxx
 
 
------------------------------------------------------------------------ <-- SCF
SCF loop      Energy                           Energy gain       Timer   <-- SCF
                                               per atom          (sec)   <-- SCF
------------------------------------------------------------------------ <-- SCF
Initial  -3.22890619E+003                                        139.94  <-- SCF
      1  -3.18728735E+003                   -1.30058881E+000     140.83  <-- SCF
      2  -3.19006195E+003                    8.67062753E-002     142.08  <-- SCF
      3  -3.18971634E+003                   -1.08001887E-002     143.20  <-- SCF
      4  -3.18990926E+003                    6.02863522E-003     144.21  <-- SCF
      5  -3.18991416E+003                    1.53112917E-004     145.38  <-- SCF
      6  -3.18991516E+003                    3.11384397E-005     146.38  <-- SCF
      7  -3.18991445E+003                   -2.20056944E-005     147.33  <-- SCF
      8  -3.18991304E+003                   -4.40041361E-005     148.25  <-- SCF
      9  -3.18991272E+003                   -1.00897968E-005     149.13  <-- SCF
     10  -3.18991277E+003                    1.42552211E-006     149.96  <-- SCF
     11  -3.18991334E+003                    1.78833578E-005     150.80  <-- SCF
     12  -3.18991368E+003                    1.04984513E-005     151.57  <-- SCF
     13  -3.18991442E+003                    2.33928841E-005     152.37  <-- SCF
     14  -3.18991481E+003                    1.19705924E-005     153.14  <-- SCF
     15  -3.18991543E+003                    1.95536830E-005     153.92  <-- SCF
[...]
 * H              20      0.00043              0.00307              0.00075         *
 * C               1      0.00790             -0.00025              0.00473         *
 * C               2     -0.00397             -0.00355             -0.00347         *
 * C               3      0.00493             -0.00077             -0.00827         *
 * C               4      0.00357             -0.00151             -0.00035         *
 * C               5      0.00376              0.00224              0.00167         *
 * C               6     -0.00010              0.00267              0.00725         *
 * C               7     -0.00263             -0.00377             -0.00592         *
 * N               1     -0.00070             -0.00198             -0.00440         *
 * O               1      0.00539              0.00524              0.00255         *
 * O               2      0.01361              0.01375             -0.00311         *
 * O               3      0.00406              0.00991             -0.00217         *
 * Si              1     -0.01128              0.00145              0.00010         *
 *                                                                                  *
 ************************************************************************************
 
 Pseudo atomic calculation performed for H 1s1
 
 Converged in 13 iterations to a total energy of -12.4790 eV
 
 Pseudo atomic calculation performed for C 2s2 2p2
 
 Converged in 17 iterations to a total energy of -148.5208 eV
 
 Pseudo atomic calculation performed for N 2s2 2p3
 
 Converged in 21 iterations to a total energy of -268.1820 eV
 
 Pseudo atomic calculation performed for O 2s2 2p4
 
 Converged in 23 iterations to a total energy of -432.6536 eV
 
 Pseudo atomic calculation performed for Si 3s2 3p2
 
 Converged in 11 iterations to a total energy of -165.0683 eV
Charge spilling parameter for spin component 1 = 1.54%
 
            Orbital Populations       
     Ion    Atom   Orbital             Charge
  -------------------------------------------
      H     1      S                    0.692
      H     2      S                    0.694
      H     3      S                    0.737
      H     4      S                    0.730
      H     5      S                    0.685
      H     6      S                    0.679
      H     7      S                    0.745
      H     8      S                    0.679
      H     9      S                    0.717
      H    10      S                    0.758
      H    11      S                    0.461
      H    12      S                    0.459
      H    13      S                    0.464
      H    14      S                    0.505
      H    15      S                    0.509
      H    16      S                    0.729
      H    17      S                    0.727
      H    18      S                    0.706
      H    19      S                    0.724
      H    20      S                    0.728
      C     1      S                    1.290
      C     1      Px                   0.760
      C     1      Py                   1.240
      C     1      Pz                   1.099
      C     2      S                    1.296
      C     2      Px                   1.072
      C     2      Py                   1.169
      C     2      Pz                   0.983
      C     3      S                    1.313
      C     3      Px                   1.201
      C     3      Py                   1.119
      C     3      Pz                   0.783
      C     4      S                    1.295
      C     4      Px                   1.068
      C     4      Py                   1.101
      C     4      Pz                   1.070
      C     5      S                    1.397
      C     5      Px                   1.065
      C     5      Py                   1.245
      C     5      Pz                   1.237
      C     6      S                    1.305
      C     6      Px                   0.964
      C     6      Py                   1.185
      C     6      Pz                   1.057
      C     7      S                    1.399
      C     7      Px                   1.221
      C     7      Py                   1.169
      C     7      Pz                   1.003
      N     1      S                    1.590
      N     1      Px                   1.301
      N     1      Py                   1.412
      N     1      Pz                   1.335
      O     1      S                    1.857
      O     1      Px                   1.787
      O     1      Py                   1.801
      O     1      Pz                   1.651
      O     2      S                    1.856
      O     2      Px                   1.779
      O     2      Py                   1.624
      O     2      Pz                   1.852
      O     3      S                    1.854
      O     3      Px                   1.830
      O     3      Py                   1.828
      O     3      Pz                   1.586
     Si     1      S                    0.716
     Si     1      Px                   0.320
     Si     1      Py                   0.408
     Si     1      Pz                   0.380
  -------------------------------------------
                           Total:      74.000
  -------------------------------------------
 
     Atomic Populations (Mulliken)
     -----------------------------
Species          Ion     s       p       d       f      Total   Charge (e)
==========================================================================
  H               1     0.692   0.000   0.000   0.000   0.692     0.308
  H               2     0.694   0.000   0.000   0.000   0.694     0.306
  H               3     0.737   0.000   0.000   0.000   0.737     0.263
  H               4     0.730   0.000   0.000   0.000   0.730     0.270
  H               5     0.685   0.000   0.000   0.000   0.685     0.315
  H               6     0.679   0.000   0.000   0.000   0.679     0.321
  H               7     0.745   0.000   0.000   0.000   0.745     0.255
  H               8     0.679   0.000   0.000   0.000   0.679     0.321
  H               9     0.717   0.000   0.000   0.000   0.717     0.283
  H              10     0.758   0.000   0.000   0.000   0.758     0.242
  H              11     0.461   0.000   0.000   0.000   0.461     0.539
  H              12     0.459   0.000   0.000   0.000   0.459     0.541
  H              13     0.464   0.000   0.000   0.000   0.464     0.536
  H              14     0.505   0.000   0.000   0.000   0.505     0.495
  H              15     0.509   0.000   0.000   0.000   0.509     0.491
  H              16     0.729   0.000   0.000   0.000   0.729     0.271
  H              17     0.727   0.000   0.000   0.000   0.727     0.273
  H              18     0.706   0.000   0.000   0.000   0.706     0.294
  H              19     0.724   0.000   0.000   0.000   0.724     0.276
  H              20     0.728   0.000   0.000   0.000   0.728     0.272
  C               1     1.290   3.099   0.000   0.000   4.389    -0.389
  C               2     1.296   3.224   0.000   0.000   4.519    -0.519
  C               3     1.313   3.103   0.000   0.000   4.416    -0.416
  C               4     1.295   3.239   0.000   0.000   4.534    -0.534
  C               5     1.397   3.547   0.000   0.000   4.945    -0.945
  C               6     1.305   3.206   0.000   0.000   4.511    -0.511
  C               7     1.399   3.394   0.000   0.000   4.793    -0.793
  N               1     1.590   4.048   0.000   0.000   5.637    -0.637
  O               1     1.857   5.238   0.000   0.000   7.095    -1.095
  O               2     1.856   5.255   0.000   0.000   7.111    -1.111
  O               3     1.854   5.244   0.000   0.000   7.098    -1.098
  Si              1     0.716   1.108   0.000   0.000   1.824     2.176
==========================================================================
 
                 Bond                   Population      Length (A)
======================================================================
              H 12 -- O 1                    0.53        0.96870
              H 11 -- O 3                    0.53        0.96914
              H 13 -- O 2                    0.53        0.96965
              H 14 -- N 1                    0.68        1.02902
              H 15 -- N 1                    0.68        1.02985
              H 18 -- C 7                    0.81        1.09716
              H 2  -- C 1                    0.88        1.09723
              H 5  -- C 3                    0.84        1.09740
              H 1  -- C 1                    0.85        1.09753
              H 6  -- C 3                    0.84        1.09833
              H 8  -- C 4                    0.84        1.09876
              H 20 -- C 7                    0.81        1.09932
              H 19 -- C 7                    0.81        1.09992
              H 10 -- C 5                    0.84        1.10116
              H 9  -- C 5                    0.83        1.10149
              H 17 -- C 6                    0.84        1.10192
              H 16 -- C 6                    0.84        1.10264
              H 4  -- C 2                    0.85        1.10368
              H 3  -- C 2                    0.85        1.10447
              H 7  -- C 4                    0.85        1.10496
               C 1 -- N 1                    0.51        1.51096
               C 1 -- C 2                    0.72        1.51693
               C 3 -- N 1                    0.50        1.51747
               C 6 -- C 7                    0.65        1.52742
               C 3 -- C 4                    0.69        1.53079
               C 2 -- C 6                    0.68        1.53155
               C 4 -- C 5                    0.67        1.53852
               O 1 -- Si 1                   0.50        1.64525
               O 3 -- Si 1                   0.50        1.64542
              H 14 -- H 15                  -0.11        1.64639
               O 2 -- Si 1                   0.49        1.65185
              H 7  -- H 8                   -0.10        1.75092
              H 9  -- H 10                  -0.11        1.76853
              H 16 -- H 17                  -0.12        1.76923
              H 3  -- H 4                   -0.12        1.77681
              H 18 -- H 20                  -0.10        1.77728
              H 19 -- H 20                  -0.10        1.77768
              H 18 -- H 19                  -0.10        1.77824
              H 1  -- H 2                   -0.10        1.78415
              H 5  -- H 6                   -0.11        1.78463
               C 5 -- Si 1                   0.59        1.87944
              H 15 -- C 1                   -0.13        2.07047
              H 14 -- C 1                   -0.13        2.07924
              H 15 -- C 3                   -0.13        2.08573
              H 6  -- N 1                   -0.12        2.09423
              H 14 -- C 3                   -0.13        2.09910
              H 1  -- N 1                   -0.11        2.10252
              H 5  -- N 1                   -0.11        2.10643
              H 2  -- N 1                   -0.11        2.10644
              H 8  -- C 3                   -0.13        2.14044
              H 4  -- C 1                   -0.14        2.15221
              H 8  -- C 5                   -0.13        2.15526
              H 3  -- C 1                   -0.14        2.15678
              H 7  -- C 3                   -0.13        2.15778
              H 3  -- C 6                   -0.12        2.16058
              H 16 -- C 2                   -0.13        2.16221
              H 17 -- C 2                   -0.13        2.16250
              H 4  -- C 6                   -0.12        2.16481
              H 16 -- C 7                   -0.13        2.16930
              H 17 -- C 7                   -0.13        2.17065
              H 9  -- C 4                   -0.12        2.17373
              H 20 -- C 6                   -0.12        2.17527
              H 19 -- C 6                   -0.12        2.17699
              H 18 -- C 6                   -0.12        2.17839
              H 2  -- C 2                   -0.12        2.18263
              H 7  -- C 5                   -0.13        2.18456
              H 1  -- C 2                   -0.12        2.18635
              H 2  -- H 10                  -0.04        2.19326
              H 5  -- C 4                   -0.12        2.19337
              H 6  -- C 4                   -0.12        2.19639
              H 10 -- C 4                   -0.11        2.20100
              H 13 -- Si 1                  -0.14        2.27350
              H 12 -- Si 1                  -0.13        2.27541
              H 11 -- Si 1                  -0.13        2.30408
              H 6  -- H 8                   -0.06        2.32503
              H 6  -- H 14                  -0.03        2.33371
              H 7  -- H 15                  -0.01        2.35384
              H 2  -- H 15                  -0.04        2.36974
              H 3  -- H 14                  -0.01        2.37679
              H 6  -- H 15                  -0.03        2.38115
              H 5  -- H 14                  -0.03        2.40926
              H 1  -- H 14                  -0.03        2.43578
              H 10 -- Si 1                  -0.13        2.44131
              H 2  -- H 7                   -0.02        2.45808
              H 8  -- H 9                   -0.04        2.46280
               C 2 -- N 1                   -0.14        2.48079
              H 9  -- Si 1                  -0.11        2.48933
              H 4  -- H 15                  -0.01        2.48996
              H 2  -- H 4                   -0.04        2.49738
              H 1  -- H 5                   -0.01        2.50102
              H 17 -- H 18                  -0.03        2.50267
              H 4  -- H 17                  -0.03        2.50770
              H 3  -- H 16                  -0.03        2.51144
              H 16 -- H 19                  -0.03        2.51489
               C 2 -- C 7                   -0.16        2.52233
               C 4 -- N 1                   -0.13        2.52520
              H 16 -- H 18                  -0.03        2.52681
               C 1 -- C 6                   -0.14        2.52749
              H 4  -- H 20                  -0.01        2.53619
              H 17 -- H 20                  -0.03        2.54089
              H 1  -- H 3                   -0.03        2.54691
              H 3  -- H 19                  -0.01        2.55121
              H 7  -- N 1                   -0.05        2.55161
              H 1  -- H 16                  -0.01        2.56690
               C 1 -- C 3                   -0.12        2.57098
              H 1  -- H 10                  -0.02        2.59387
               C 3 -- C 5                   -0.15        2.59672
              H 14 -- C 2                   -0.04        2.61744
              H 7  -- H 10                  -0.02        2.61861
              H 5  -- H 9                   -0.01        2.62005
              H 2  -- H 17                  -0.01        2.63265
               O 1 -- O 2                   -0.08        2.64599
              H 15 -- C 2                   -0.03        2.67455
              H 5  -- C 5                   -0.06        2.67634
              H 7  -- O 2                    0.00        2.68284
              H 3  -- N 1                   -0.03        2.68576
              H 15 -- C 4                   -0.03        2.71804
              H 6  -- H 7                    0.00        2.72172
              H 4  -- N 1                   -0.02        2.73387
              H 2  -- C 4                   -0.02        2.73542
              H 3  -- C 7                   -0.04        2.73615
              H 1  -- C 3                   -0.03        2.73821
               O 1 -- O 3                   -0.08        2.74490
              H 16 -- C 1                   -0.04        2.74998
              H 4  -- C 7                   -0.04        2.75484
               C 5 -- O 2                   -0.11        2.75577
              H 17 -- C 1                   -0.04        2.76073
              H 20 -- C 2                   -0.04        2.76234
              H 5  -- H 8                    0.01        2.76354
              H 5  -- H 10                  -0.01        2.77087
              H 13 -- O 1                   -0.01        2.78012
               O 2 -- O 3                   -0.07        2.78126
              H 10 -- C 1                   -0.04        2.78369
               C 5 -- O 3                   -0.11        2.78434
              H 5  -- C 1                   -0.04        2.78569
              H 19 -- C 2                   -0.04        2.79478
              H 2  -- C 3                   -0.02        2.79547
              H 1  -- C 6                   -0.03        2.79878
              H 8  -- O 3                   -0.00        2.80188
               C 4 -- Si 1                  -0.15        2.81810
              H 10 -- C 3                   -0.03        2.84407
              H 2  -- C 5                   -0.03        2.84519
              H 2  -- C 6                   -0.03        2.84611
              H 12 -- O 3                   -0.01        2.87534
              H 9  -- C 3                   -0.03        2.89382
              H 7  -- Si 1                  -0.07        2.90941
              H 10 -- O 2                   -0.01        2.93151
              H 1  -- H 15                   0.03        2.94620
              H 2  -- H 14                   0.03        2.95397
              H 5  -- H 15                   0.03        2.95666
              H 4  -- H 14                  -0.00        2.96284
               C 5 -- O 1                   -0.08        2.97893
              H 3  -- H 15                  -0.00        2.98453
              H 11 -- H 12                  -0.00        2.99824
======================================================================
 
 
     Hirshfeld Analysis
     ------------------
Species   Ion     Hirshfeld Charge (e)
======================================
  H        1                 0.07
  H        2                 0.07
  H        3                 0.05
  H        4                 0.05
  H        5                 0.07
  H        6                 0.07
  H        7                 0.04
  H        8                 0.06
  H        9                 0.05
  H       10                 0.03
  H       11                 0.18
  H       12                 0.17
  H       13                 0.17
  H       14                 0.18
  H       15                 0.18
  H       16                 0.04
  H       17                 0.04
  H       18                 0.05
  H       19                 0.05
  H       20                 0.05
  C        1                 0.01
  C        2                -0.06
  C        3                 0.02
  C        4                -0.05
  C        5                -0.15
  C        6                -0.05
  C        7                -0.10
  N        1                 0.04
  O        1                -0.28
  O        2                -0.29
  O        3                -0.28
  Si       1                 0.47
======================================
 

Writing analysis data to Conf_0033.castep_bin

Writing model to Conf_0033.check
 
 A BibTeX formatted list of references used in this run has been written to 
 Conf_0033.bib
 
Initialisation time =     25.49 s
Calculation time    =   1176.47 s
Finalisation time   =      1.38 s
Total time          =   1203.34 s
Peak Memory Use     = 7921028 kB
 
Overall parallel efficiency rating: Satisfactory (67%)
 
Data was distributed by:-
G-vector (48-way); efficiency rating: Satisfactory (67%)
High Water Mark     = 1912280 kB
