 Job started on host drago31060178.mgmt.cc.csic.es
 at Sun Mar 31 01:20:08 2024

 +-------------------------------------------------+
 |                                                 |
 |      CCC   AA    SSS  TTTTT  EEEEE  PPPP        |
 |     C     A  A  S       T    E      P   P       |
 |     C     AAAA   SS     T    EEE    PPPP        |
 |     C     A  A     S    T    E      P           |
 |      CCC  A  A  SSS     T    EEEEE  P           |
 |                                                 |
 +-------------------------------------------------+
 |                                                 |
 | Materials Studio CASTEP version 2024            |
 | Ab Initio Total Energy Program                  |
 |                                                 |
 | Authors:                                        |
 | M. Segall, M. Probert, C. Pickard, P. Hasnip,   |
 | S. Clark, K. Refson, J. R. Yates,               |
 | A. Bartok-Partay, M. Payne                      |
 |                                                 |
 | Contributors:                                   |
 | P. Lindan, P. Haynes, J. White, V. Milman,      |
 | N. Govind, M. Gibson, P. Tulip, V. Cocula,      |
 | B. Montanari, D. Quigley, M. Glover,            |
 | L. Bernasconi, A. Perlov, M. Plummer,           |
 | E. McNellis, J. Meyer, J. Gale, D. Jochym       |
 | J. Aarons, B. Walker, R. Gillen, D. Jones       |
 | T. Green, I. J. Bush, C. J. Armstrong,          |
 | E. J. Higgins, E. L. Brown, M. S. McFly,        |
 | J. Wilkins, B-C. Shih, P. J. P. Byrne,          |
 | R. J. Maurer, J. C. Womack, J. Dziedzic,        |
 | L. LeBlanc, T. K. Stenczel, J. Kermode,         |
 | S. Sturniolo, B. Shi, B. Durham, M. Evans,      |
 | M. J. Smith, A. Tamerus, Z. Hawkhead,           |
 | V. Ravindran, T. Hollins, S. A. Joyce,          |
 | R. T. Strong, A. M. Reilly                      |
 |                                                 |
 | Copyright (c) 2000 - 2023                       |
 |                                                 |
 | Please cite                                     |
 |                                                 |
 |     "First principles methods using CASTEP"     |
 |                                                 |
 |         Zeitschrift fuer Kristallographie       |
 |           220(5-6) pp. 567-570 (2005)           |
 |                                                 |
 | S. J. Clark, M. D. Segall, C. J. Pickard,       |
 | P. J. Hasnip, M. J. Probert, K. Refson,         |
 | M. C. Payne                                     |
 |                                                 |
 |       in all publications arising from          |
 |              your use of CASTEP                 |
 |                                                 |
 +-------------------------------------------------+
 |                                                 |
 |              http://www.castep.org              |
 |                                                 |
 +-------------------------------------------------+
 
 
 This version was compiled for x86_64-rhel7-intel19.0 on Oct 24 2023
 Code version:    a9f326b
 Intel(R) Math Kernel Library Version 2019.0.4 
 Fundamental constants values: CODATA 2018
 
License checkout of MS_castep successful
 
 
 Atomic calculation performed for H: 1s1
 
 Converged in 41 iterations to an ae energy of -12.488 eV
 
 Identity difference: 2.63E-05
 
   ============================================================                
   | Pseudopotential Report - Date of generation 31-03-2024   |                
   ------------------------------------------------------------                
   | Element: H Ionic charge:  1.00 Level of theory: PBE      |                
   | Atomic Solver: Koelling-Harmon                           |                
   |                                                          |                
   |               Reference Electronic Structure             |                
   |         Orbital         Occupation         Energy        |                
   |            1s              1.000           -0.239        |                
   |                                                          |                
   |                 Pseudopotential Definition               |                
   |        Beta     l      e      Rc     scheme   norm       |                
   |          1      0   -0.239   0.599     qc      0         |                
   |          2      0    0.250   0.599     qc      0         |                
   |         loc     1    0.000   0.599     pn      0         |                
   |                                                          |                
   | Augmentation charge Rinner = 0.421                       |                
   | No partial core correction                               |                
   ------------------------------------------------------------                
   | "1|0.6|9|10|15|10UU(qc=8)[]"                             |                
   ------------------------------------------------------------                
   |      Author: Chris J. Pickard, Cambridge University      |                
   ============================================================                
 
 Doing a self consistent calculation for the test configuration
 
 Atomic calculation performed for H: 1s1
 
 Converged in 41 iterations to an ae energy of -12.488 eV
 
 ---------------------------------------
 AE eigenvalue nl 10 =       -0.23860176
 ---------------------------------------
 PS eigenvalue nl 10 =       -0.23857601
 ---------------------------------------
 Maximum eigenvalue error:   2.57E-05
 
 Derived cutoff energies: C=   1 M=   6 F=  10 E=  20
 
 Checking for ghost states up to   1.51185 Ha
 
 No Ghost States Identified
 
 ***************************************
 
 Atomic calculation performed for C: 1s2 2s2 2p2
 
 Converged in 54 iterations to an ae energy of -1027.632 eV
 
 Identity difference: 2.37E-04
 
   ============================================================                
   | Pseudopotential Report - Date of generation 31-03-2024   |                
   ------------------------------------------------------------                
   | Element: C Ionic charge:  4.00 Level of theory: PBE      |                
   | Atomic Solver: Koelling-Harmon                           |                
   |                                                          |                
   |               Reference Electronic Structure             |                
   |         Orbital         Occupation         Energy        |                
   |            2s              2.000           -0.505        |                
   |            2p              2.000           -0.194        |                
   |                                                          |                
   |                 Pseudopotential Definition               |                
   |        Beta     l      e      Rc     scheme   norm       |                
   |          1      0   -0.505   1.395     qc      0         |                
   |          2      0    0.250   1.395     qc      0         |                
   |          3      1   -0.194   1.395     qc      0         |                
   |          4      1    0.250   1.395     qc      0         |                
   |         loc     2    0.000   1.395     pn      0         |                
   |                                                          |                
   | Augmentation charge Rinner = 0.983                       |                
   | Partial core correction Rc = 0.983                       |                
   ------------------------------------------------------------                
   | "2|1.4|11|12|14.7|20UU:21UU(qc=7)[]"                     |                
   ------------------------------------------------------------                
   |      Author: Chris J. Pickard, Cambridge University      |                
   ============================================================                
 
 Doing a self consistent calculation for the test configuration
 
 Atomic calculation performed for C: 1s2 2s2 2p2
 
 Converged in 54 iterations to an ae energy of -1027.632 eV
 
 ---------------------------------------
 AE eigenvalue nl 10 =      -10.04653081
 AE eigenvalue nl 20 =       -0.50533429
 AE eigenvalue nl 21 =       -0.19423807
 ---------------------------------------
 PS eigenvalue nl 20 =       -0.50531853
 PS eigenvalue nl 21 =       -0.19422214
 ---------------------------------------
 Maximum eigenvalue error:   1.59E-05
 
 Derived cutoff energies: C=   6 M=  10 F=  12 E=  16
 
 Checking for ghost states up to   1.47183 Ha
 
 No Ghost States Identified
 
 ***************************************
 
 Atomic calculation performed for N: 1s2 2s2 2p3
 
 Converged in 55 iterations to an ae energy of -1481.742 eV
 
 Identity difference: 2.27E-04
 
   ============================================================                
   | Pseudopotential Report - Date of generation 31-03-2024   |                
   ------------------------------------------------------------                
   | Element: N Ionic charge:  5.00 Level of theory: PBE      |                
   | Atomic Solver: Koelling-Harmon                           |                
   |                                                          |                
   |               Reference Electronic Structure             |                
   |         Orbital         Occupation         Energy        |                
   |            2s              2.000           -0.683        |                
   |            2p              3.000           -0.261        |                
   |                                                          |                
   |                 Pseudopotential Definition               |                
   |        Beta     l      e      Rc     scheme   norm       |                
   |          1      0   -0.683   1.100     qc      0         |                
   |          2      0    0.250   1.100     qc      0         |                
   |          3      1   -0.261   1.100     qc      0         |                
   |          4      1    0.250   1.100     qc      0         |                
   |         loc     2    0.000   1.100     pn      0         |                
   |                                                          |                
   | Augmentation charge Rinner = 0.769                       |                
   | Partial core correction Rc = 0.769                       |                
   ------------------------------------------------------------                
   | "2|1.1|12|16|19|20UU:21UU(qc=7)[]"                       |                
   ------------------------------------------------------------                
   |      Author: Chris J. Pickard, Cambridge University      |                
   ============================================================                
 
 Doing a self consistent calculation for the test configuration
 
 Atomic calculation performed for N: 1s2 2s2 2p3
 
 Converged in 55 iterations to an ae energy of -1481.742 eV
 
 ---------------------------------------
 AE eigenvalue nl 10 =      -14.13820921
 AE eigenvalue nl 20 =       -0.68290611
 AE eigenvalue nl 21 =       -0.26054797
 ---------------------------------------
 PS eigenvalue nl 20 =       -0.68291221
 PS eigenvalue nl 21 =       -0.26051708
 ---------------------------------------
 Maximum eigenvalue error:   3.09E-05
 
 Derived cutoff energies: C=  10 M=  15 F=  18 E=  23
 
 Checking for ghost states up to   1.48495 Ha
 
 No Ghost States Identified
 
 ***************************************
 
 Atomic calculation performed for O: 1s2 2s2 2p4
 
 Converged in 61 iterations to an ae energy of -2040.902 eV
 
 Identity difference: 4.10E-04
 
   ============================================================                
   | Pseudopotential Report - Date of generation 31-03-2024   |                
   ------------------------------------------------------------                
   | Element: O Ionic charge:  6.00 Level of theory: PBE      |                
   | Atomic Solver: Koelling-Harmon                           |                
   |                                                          |                
   |               Reference Electronic Structure             |                
   |         Orbital         Occupation         Energy        |                
   |            2s              2.000           -0.881        |                
   |            2p              4.000           -0.332        |                
   |                                                          |                
   |                 Pseudopotential Definition               |                
   |        Beta     l      e      Rc     scheme   norm       |                
   |          1      0   -0.881   1.100     qc      0         |                
   |          2      0    0.250   1.100     qc      0         |                
   |          3      1   -0.332   1.100     qc      0         |                
   |          4      1    0.250   1.100     qc      0         |                
   |         loc     2    0.000   1.100     pn      0         |                
   |                                                          |                
   | Augmentation charge Rinner = 0.769                       |                
   | Partial core correction Rc = 0.769                       |                
   ------------------------------------------------------------                
   | "2|1.1|14|18|21|20UU:21UU(qc=7)[]"                       |                
   ------------------------------------------------------------                
   |      Author: Chris J. Pickard, Cambridge University      |                
   ============================================================                
 
 Doing a self consistent calculation for the test configuration
 
 Atomic calculation performed for O: 1s2 2s2 2p4
 
 Converged in 61 iterations to an ae energy of -2040.902 eV
 
 ---------------------------------------
 AE eigenvalue nl 10 =      -18.91475256
 AE eigenvalue nl 20 =       -0.88057101
 AE eigenvalue nl 21 =       -0.33186952
 ---------------------------------------
 PS eigenvalue nl 20 =       -0.88059206
 PS eigenvalue nl 21 =       -0.33182157
 ---------------------------------------
 Maximum eigenvalue error:   4.80E-05
 
 Derived cutoff energies: C=  14 M=  17 F=  20 E=  22
 
 Checking for ghost states up to   1.49452 Ha
 
 No Ghost States Identified
 
 ***************************************
 
 Atomic calculation performed for Si: 1s2 2s2 2p6 3s2 3p2
 
 Converged in 54 iterations to an ae energy of -7886.857 eV
 
 Identity difference: 1.35E-04
 
   ============================================================                
   | Pseudopotential Report - Date of generation 31-03-2024   |                
   ------------------------------------------------------------                
   | Element: Si Ionic charge:  4.00 Level of theory: PBE     |                
   | Atomic Solver: Koelling-Harmon                           |                
   |                                                          |                
   |               Reference Electronic Structure             |                
   |         Orbital         Occupation         Energy        |                
   |            3s              2.000           -0.397        |                
   |            3p              2.000           -0.150        |                
   |                                                          |                
   |                 Pseudopotential Definition               |                
   |        Beta     l      e      Rc     scheme   norm       |                
   |          1      0   -0.397   1.797     qc      0         |                
   |          2      0    0.250   1.797     qc      0         |                
   |          3      1   -0.150   1.797     qc      0         |                
   |          4      1    0.250   1.797     qc      0         |                
   |          5      2    0.000   1.797     qc      0         |                
   |          6      2    0.250   1.797     qc      0         |                
   |         loc     3    0.000   1.797     pn      0         |                
   |                                                          |                
   | Augmentation charge Rinner = 1.255                       |                
   | Partial core correction Rc = 1.255                       |                
   ------------------------------------------------------------                
   | "3|1.8|3.6|5|7|30UU:31UU:32UU[]"                         |                
   ------------------------------------------------------------                
   |      Author: Chris J. Pickard, Cambridge University      |                
   ============================================================                
 
 Doing a self consistent calculation for the test configuration
 
 Atomic calculation performed for Si: 1s2 2s2 2p6 3s2 3p2
 
 Converged in 54 iterations to an ae energy of -7886.857 eV
 
 ---------------------------------------
 AE eigenvalue nl 10 =      -65.63192903
 AE eigenvalue nl 20 =       -5.12654326
 AE eigenvalue nl 21 =       -3.51173659
 AE eigenvalue nl 30 =       -0.39736430
 AE eigenvalue nl 31 =       -0.14998156
 ---------------------------------------
 PS eigenvalue nl 30 =       -0.39734922
 PS eigenvalue nl 31 =       -0.14996719
 ---------------------------------------
 Maximum eigenvalue error:   1.51E-05
 
 Derived cutoff energies: C=   1 M=   3 F=   6 E=   6
 
 Checking for ghost states up to   1.41161 Ha
 
 No Ghost States Identified
 
 ***************************************
 
 Pseudo atomic calculation performed for H 1s1
 
 Converged in 13 iterations to a total energy of -12.4790 eV
 
 Pseudo atomic calculation performed for C 2s2 2p2
 
 Converged in 17 iterations to a total energy of -148.5208 eV
 
 Pseudo atomic calculation performed for N 2s2 2p3
 
 Converged in 21 iterations to a total energy of -268.1820 eV
 
 Pseudo atomic calculation performed for O 2s2 2p4
 
 Converged in 23 iterations to a total energy of -432.6536 eV
 
 Pseudo atomic calculation performed for Si 3s2 3p2
 
 Converged in 11 iterations to a total energy of -165.0683 eV
 Calculation parallelised over 48 processes.
 Data is distributed by G-vector(48-way)

 ************************************ Title ************************************
 CASTEP calculation from BIOVIA Materials Studio 2024

 ***************************** General Parameters ******************************
  
 output verbosity                               : normal  (1)
 write checkpoint data to                       : Conf_0021.check
 type of calculation                            : geometry optimization
 stress calculation                             : off
 density difference calculation                 : off
 electron localisation func (ELF) calculation   : off
 Hirshfeld analysis                             : on
 polarisation (Berry phase) analysis            : off
 molecular orbital projected DOS                : off
 deltaSCF calculation                           : off
 unlimited duration calculation
 timing information                             : on
 memory usage estimate                          : on
 write extra output files                       : on
 write final potential to formatted file        : off
 write final density to formatted file          : off
 write BibTeX reference list                    : on
 write OTFG pseudopotential files               : on
 write electrostatic potential file             : on
 write bands file                               : on
 checkpoint writing                             : both castep_bin and check files
  
 output         length unit                     : A
 output           mass unit                     : amu
 output           time unit                     : ps
 output         charge unit                     : e
 output           spin unit                     : hbar/2
 output         energy unit                     : eV
 output          force unit                     : eV/A
 output       velocity unit                     : A/ps
 output       pressure unit                     : GPa
 output     inv_length unit                     : 1/A
 output      frequency unit                     : cm-1
 output force constant unit                     : eV/A**2
 output         volume unit                     : A**3
 output   IR intensity unit                     : (D/A)**2/amu
 output         dipole unit                     : D
 output         efield unit                     : eV/A/e
 output        entropy unit                     : J/mol/K
 output    efield chi2 unit                     : pm/V
  
 wavefunctions paging                           : none
 random number generator seed                   :   12011352
 data distribution                              : optimal for this architecture
 optimization strategy                          : balance speed and memory

 *********************** Exchange-Correlation Parameters ***********************
  
 using functional                               : Perdew Burke Ernzerhof
 relativistic treatment                         : Koelling-Harmon
 DFT+D: Semi-empirical dispersion correction    : on
 SEDC with                                      : G06 correction scheme

 ************************* Pseudopotential Parameters **************************
  
 pseudopotential representation                 : reciprocal space
 <beta|phi> representation                      : reciprocal space
 spin-orbit coupling                            : off

 **************************** Basis Set Parameters *****************************
  
 plane wave basis set cut-off                   :   600.0000   eV
 size of standard grid                          :     1.5000
 size of   fine   gmax                          :    18.8237   1/A
 largest prime factor in FFT                    :          5
 finite basis set correction                    : none

 **************************** Electronic Parameters ****************************
  
 number of  electrons                           :  74.00    
 net charge of system                           : +1.000    
 treating system as non-spin-polarized
 number of bands                                :         37

 ********************* Electronic Minimization Parameters **********************
  
 Method: Treating system as non-metallic,
         and number of  SD  steps               :          1
         and number of  CG  steps               :          4
  
 total energy / atom convergence tol.           : 0.2000E-05   eV
 eigen-energy convergence tolerance             : 0.1000E-05   eV
 max force / atom convergence tol.              : ignored
 convergence tolerance window                   :          3   cycles
 max. number of SCF cycles                      :        100
 periodic dipole correction                     : NONE

 ************************** Density Mixing Parameters **************************
  
 density-mixing scheme                          : Pulay
 max. length of mixing history                  :         20
 charge density mixing amplitude                : 0.5000    
 cut-off energy for mixing                      :  600.0       eV
 charge density mixing g-vector                 :  1.500       1/A

 *********************** Population Analysis Parameters ************************
  
 Population analysis with cutoff                :  3.000       A
 Population analysis output                     : summary and pdos components

 ********************** Geometry Optimization Parameters ***********************
  
 optimization method                            : LBFGS
 max. no. of LBFGS updates                      : unbounded
 preconditioned LBFGS is activated
 preconditioner type                            : EXP
     stabilization constant                     :     0.1000
     parameter A                                :     3.0000
     nearest neighbor distance                  : automatic
     cut-off distance                           : automatic
     parameter mu                               : automatic
 variable cell method                           : fixed basis quality
 max. number of steps                           :        300
 estimated bulk modulus                         :  500.0       GPa
 estimated <frequency>                          :  1668.       cm-1
 geom line minimiser                            : on
 with line minimiser tolerance                  :     0.4000
 total energy convergence tolerance             : 0.2000E-04   eV/atom
        max ionic |force| tolerance             : 0.5000E-01   eV/A
 max ionic |displacement| tolerance             : 0.2000E-02   A
   max |stress component| tolerance             : 0.1000       GPa
 convergence tolerance window                   :          2   steps
 backup results every                           :          5   steps
 write geom trajectory file                     : on

 *******************************************************************************
  
 
                           -------------------------------
                                      Unit Cell
                           -------------------------------
        Real Lattice(A)                      Reciprocal Lattice(1/A)
    13.4840002    -0.0000006    -0.0000006        0.465973392   0.000000000   0.000000000
     0.0000000    20.4006996    -0.0000009        0.000000013   0.307988717   0.000000000
     0.0000000     0.0000000    45.0000000        0.000000006   0.000000006   0.139626340
 
                       Lattice parameters(A)       Cell Angles
                    a =     13.484000          alpha =   90.000003
                    b =     20.400700          beta  =   90.000003
                    c =     45.000000          gamma =   90.000003
 
                       Current cell volume =         12378.736702       A**3
                                   density =             0.015698   AMU/A**3
                                           =             0.026068     g/cm^3
 
                           -------------------------------
                                     Cell Contents
                           -------------------------------
                         Total number of ions in cell =   32
                      Total number of species in cell =    5
                        Max number of any one species =   20
 
            xxxxxxxxxxxxxxxxxxxxxxxxxxxxxxxxxxxxxxxxxxxxxxxxxxxxxxxxxxxx
            x  Element    Atom        Fractional coordinates of atoms  x
            x            Number           u          v          w      x
            x----------------------------------------------------------x
            x  H            1         0.490169   0.383953   0.549246   x 
            x  H            2         0.588208   0.431426   0.532807   x 
            x  H            3         0.411684   0.488254   0.568406   x 
            x  H            4         0.508366   0.535045   0.552012   x 
            x  H            5         0.553212   0.388459   0.485684   x 
            x  H            6         0.458460   0.338557   0.502201   x 
            x  H            7         0.335622   0.371592   0.465839   x 
            x  H            8         0.444244   0.353944   0.445647   x 
            x  H            9         0.355421   0.489357   0.459025   x 
            x  H           10         0.375033   0.452042   0.424282   x 
            x  H           11         0.608992   0.557760   0.478864   x 
            x  H           12         0.517579   0.565993   0.402380   x 
            x  H           13         0.674861   0.472826   0.422167   x 
            x  H           14         0.372884   0.441606   0.516473   x 
            x  H           15         0.464140   0.485444   0.501818   x 
            x  H           16         0.536501   0.432138   0.601302   x 
            x  H           17         0.632676   0.479099   0.584981   x 
            x  H           18         0.579054   0.528634   0.633190   x 
            x  H           19         0.455246   0.535570   0.619905   x 
            x  H           20         0.551608   0.583015   0.603401   x 
            x  C            1         0.509999   0.432249   0.539980   x 
            x  C            2         0.490912   0.487228   0.562247   x 
            x  C            3         0.472988   0.384648   0.490162   x 
            x  C            4         0.411726   0.389216   0.461564   x 
            x  C            5         0.407394   0.457590   0.446698   x 
            x  C            6         0.552934   0.479717   0.590644   x 
            x  C            7         0.533671   0.534716   0.612991   x 
            x  N            1         0.445961   0.442230   0.511510   x 
            x  O            1         0.527742   0.568381   0.423213   x 
            x  O            2         0.617399   0.454246   0.430984   x 
            x  O            3         0.561035   0.523632   0.477396   x 
            x  Si           1         0.530567   0.502434   0.443397   x 
            xxxxxxxxxxxxxxxxxxxxxxxxxxxxxxxxxxxxxxxxxxxxxxxxxxxxxxxxxxxx
 
 
                         No user defined ionic velocities
 
                           -------------------------------
                                   Details of Species
                           -------------------------------
 
                               Mass of species in AMU
                                    H    1.0080000
                                    C   12.0109997
                                    N   14.0070000
                                    O   15.9989996
                                    Si   28.0849991
 
                          Electric Quadrupole Moment (Barn)
                                    H    0.0028600 Isotope  2
                                    C    0.0332700 Isotope 11
                                    N    0.0204400 Isotope 14
                                    O   -0.0255800 Isotope 17
                                    Si    1.0000000 No Isotope Defined
 
                          Files used for pseudopotentials:
                                    H 1|0.6|9|10|15|10UU(qc=8)[]
                                    C 2|1.4|11|12|14.7|20UU:21UU(qc=7)[]
                                    N 2|1.1|12|16|19|20UU:21UU(qc=7)[]
                                    O 2|1.1|14|18|21|20UU:21UU(qc=7)[]
                                    Si 3|1.8|3.6|5|7|30UU:31UU:32UU[]
 
                           -------------------------------
                              k-Points For BZ Sampling
                           -------------------------------
                       MP grid size for SCF calculation is  1  1  1
                            with an offset of   0.000  0.000  0.000
                       Number of kpoints used =             1
 
                           -------------------------------
                               Symmetry and Constraints
                           -------------------------------
 
                      Maximum deviation from symmetry =  0.00000         ANG
 
                      Number of symmetry operations   =           1
                      Number of nonlinear constraints =           3
         There are no ionic constraints specified or generated for this cell
                      Point group of crystal =     1: C1, 1, 1
                      Space group of crystal =     1: P1, P 1
 
             Set iprint > 1 for details on symmetry rotations/translations
 
                         Centre of mass is NOT constrained
 
                         Number of cell constraints= 6
                         Cell constraints are:  0 0 0 0 0 0
 
                         External pressure/stress (GPa)
                          0.00000   0.00000   0.00000
                                    0.00000   0.00000
                                              0.00000
 
                                --------------------
                                  DFT-D parameters
                                --------------------
 
                          Dispersion-correction scheme : G06       
                        Parameter s6 :   0.750000 (default)
                        Parameter d  :  20.000000 (default)
 
        xxxxxxxxxxxxxxxxxxxxxxxxxxxxxxxxxxxxxxxxxxxxxxxxxxxxxxxxxxxxxxxxxxxx
        x              Atomic DFT-D parameters                             x
        x  Species      C6            R0                                   x
        x               eV A^6        Ang                                  x
        x------------------------------------------------------------------x
        x  H             1.4510       1.0010   (default)                   x
        x  C            18.1375       1.4520   (default)                   x
        x  N            12.7481       1.3970   (default)                   x
        x  O             7.2550       1.3420   (default)                   x
        x  Si           95.6622       1.7160   (default)                   x
        xxxxxxxxxxxxxxxxxxxxxxxxxxxxxxxxxxxxxxxxxxxxxxxxxxxxxxxxxxxxxxxxxxxx
 
 
+---------------- MEMORY AND SCRATCH DISK ESTIMATES PER PROCESS --------------+
|                                                     Memory          Disk    |
| Baseline code, static data and system overhead     6530.0 MB         0.0 MB |
| BLAS internal memory storage                          0.0 MB         0.0 MB |
| Model and support data                              540.6 MB         0.0 MB |
| Electronic energy minimisation requirements          31.8 MB         0.0 MB |
| Force calculation requirements                        6.8 MB         0.0 MB |
|                                               ----------------------------- |
| Approx. total storage required per process         7102.3 MB         0.0 MB |
|                                                                             |
| Requirements will fluctuate during execution and may exceed these estimates |
+-----------------------------------------------------------------------------+
Calculating approximate eigenstates for fixed initial Hamiltonian
Cut-off for approx. calculation is  119.774 eV
Improving approx. states at cut-off of  300.000 eV
Resetting cut-off to  600.000 eV
Calculating total energy with cut-off of  600.000 eV.
------------------------------------------------------------------------ <-- SCF
SCF loop      Energy                           Energy gain       Timer   <-- SCF
                                               per atom          (sec)   <-- SCF
------------------------------------------------------------------------ <-- SCF
Initial  -2.96118905E+003                                         30.46  <-- SCF
      1  -3.20330513E+003                    7.56612732E+000      31.29  <-- SCF
      2  -3.20390060E+003                    1.86085516E-002      32.19  <-- SCF
      3  -3.19294462E+003                   -3.42374552E-001      33.21  <-- SCF
      4  -3.19181726E+003                   -3.52299664E-002      34.38  <-- SCF
      5  -3.19125479E+003                   -1.75769807E-002      35.39  <-- SCF
      6  -3.19118695E+003                   -2.12016522E-003      36.69  <-- SCF
      7  -3.19114650E+003                   -1.26393422E-003      37.71  <-- SCF
      8  -3.19114657E+003                    2.07233041E-006      38.83  <-- SCF
      9  -3.19113926E+003                   -2.28488094E-004      39.84  <-- SCF
     10  -3.19112588E+003                   -4.17936146E-004      40.88  <-- SCF
     11  -3.19110412E+003                   -6.80135105E-004      41.85  <-- SCF
     12  -3.19102900E+003                   -2.34761092E-003      42.84  <-- SCF
     13  -3.19095220E+003                   -2.39993194E-003      43.84  <-- SCF
     14  -3.19088519E+003                   -2.09398962E-003      44.86  <-- SCF
     15  -3.19083575E+003                   -1.54499696E-003      45.86  <-- SCF
     16  -3.19080705E+003                   -8.96989166E-004      46.85  <-- SCF
     17  -3.19077782E+003                   -9.13245893E-004      47.83  <-- SCF
     18  -3.19074360E+003                   -1.06946876E-003      48.82  <-- SCF
     19  -3.19071464E+003                   -9.04887069E-004      49.81  <-- SCF
     20  -3.19068680E+003                   -8.70185861E-004      50.74  <-- SCF
     21  -3.19066092E+003                   -8.08806630E-004      51.69  <-- SCF
     22  -3.19065105E+003                   -3.08356203E-004      52.61  <-- SCF
     23  -3.19064966E+003                   -4.35246245E-005      53.61  <-- SCF
     24  -3.19065346E+003                    1.18949092E-004      54.69  <-- SCF
     25  -3.19065664E+003                    9.93836035E-005      55.64  <-- SCF
     26  -3.19066086E+003                    1.31640173E-004      56.48  <-- SCF
     27  -3.19066404E+003                    9.95163757E-005      57.36  <-- SCF
     28  -3.19066842E+003                    1.36966689E-004      58.19  <-- SCF
     29  -3.19067054E+003                    6.61017188E-005      58.99  <-- SCF
     30  -3.19067389E+003                    1.04742472E-004      59.81  <-- SCF
     31  -3.19067567E+003                    5.56607161E-005      60.63  <-- SCF
     32  -3.19067758E+003                    5.96267450E-005      61.42  <-- SCF
     33  -3.19067868E+003                    3.44429260E-005      62.22  <-- SCF
     34  -3.19067988E+003                    3.76079284E-005      63.01  <-- SCF
     35  -3.19068056E+003                    2.11394160E-005      63.80  <-- SCF
     36  -3.19068113E+003                    1.78941838E-005      64.60  <-- SCF
     37  -3.19068133E+003                    6.24670371E-006      65.39  <-- SCF
     38  -3.19068199E+003                    2.04994112E-005      66.18  <-- SCF
     39  -3.19068212E+003                    3.93108290E-006      66.98  <-- SCF
     40  -3.19068257E+003                    1.43278215E-005      67.77  <-- SCF
     41  -3.19068276E+003                    5.81948047E-006      68.56  <-- SCF
     42  -3.19068308E+003                    9.97864266E-006      69.36  <-- SCF
     43  -3.19068326E+003                    5.53262168E-006      70.15  <-- SCF
     44  -3.19068345E+003                    5.98288724E-006      70.95  <-- SCF
     45  -3.19068356E+003                    3.35546558E-006      71.74  <-- SCF
     46  -3.19068362E+003                    2.13861289E-006      72.54  <-- SCF
     47  -3.19068366E+003                    1.17833471E-006      73.33  <-- SCF
     48  -3.19068370E+003                    1.08868645E-006      74.12  <-- SCF
     49  -3.19068372E+003                    6.30057259E-007      74.98  <-- SCF
------------------------------------------------------------------------ <-- SCF
 
Final energy =  -3190.683716355     eV
(energy not corrected for finite basis set)
 
(SEDC) Total Energy Correction : -0.827712E+00 eV

Dispersion corrected final energy* =  -3191.511427895     eV

Writing analysis data to Conf_0021.castep_bin

Writing model to Conf_0021.check

WARNING - nonlinear constraints cannot be used with LBFGS algorithm
        - consider setting geom_method=DELOCALIZED
 
        => Turning nonlinear constraints OFF
 
+---------------- MEMORY AND SCRATCH DISK ESTIMATES PER PROCESS --------------+
|                                                     Memory          Disk    |
| Model and support data                              550.1 MB         0.0 MB |
| Electronic energy minimisation requirements          31.8 MB         0.0 MB |
| Geometry minimisation requirements                   34.8 MB         0.0 MB |
|                                               ----------------------------- |
| Approx. total storage required per process          616.7 MB         0.0 MB |
|                                                                             |
| Requirements will fluctuate during execution and may exceed these estimates |
+-----------------------------------------------------------------------------+
 
 
 ************************************** Forces **************************************
 *                                                                                  *
 *                           Cartesian components (eV/A)                            *
 * -------------------------------------------------------------------------------- *
 *                         x                    y                    z              *
 *                                                                                  *
 * H               1     -0.03254              0.12211             -0.18153         *
 * H               2     -0.27521             -0.01039             -0.09429         *
 * H               3      0.01320             -0.00241             -0.03827         *
 * H               4     -0.00836             -0.07349             -0.03827         *
 * H               5     -0.22786              0.21177              0.10732         *
 * H               6      0.01852              0.27699              0.00857         *
 * H               7      0.08938              0.04408              0.02849         *
 * H               8     -0.03141              0.09599              0.19039         *
 * H               9      0.03835              0.11471             -0.07733         *
 * H              10      0.09558              0.03657              0.15782         *
 * H              11      0.62896              0.70418              0.23064         *
 * H              12     -0.16577             -0.01003             -1.04829         *
 * H              13      0.77401              0.35478             -0.50677         *
 * H              14     -0.58954             -0.06113              0.19440         *
 * H              15      0.48121              0.77217             -0.40370         *
 * H              16      0.00959              0.05073             -0.12162         *
 * H              17     -0.08049             -0.06617             -0.03854         *
 * H              18     -0.09380             -0.01916             -0.13351         *
 * H              19      0.03840             -0.01937             -0.05062         *
 * H              20     -0.04032             -0.08973              0.03579         *
 * C               1     -0.61257              0.68041             -0.04537         *
 * C               2      0.04371              0.00934              0.03034         *
 * C               3     -0.64858              0.73110             -0.20592         *
 * C               4      0.00354             -0.27632             -0.20284         *
 * C               5      0.49108             -0.05358              0.12828         *
 * C               6      0.14189             -0.13809              0.13466         *
 * C               7     -0.05800              0.11629              0.06221         *
 * N               1      1.87436             -2.37502              0.69559         *
 * O               1     -0.13598              0.61131              1.02930         *
 * O               2     -0.64224             -1.13481              0.26111         *
 * O               3     -0.71262             -0.14881              0.69510         *
 * Si              1     -0.38649             -0.45404             -0.80314         *
 *                                                                                  *
 ************************************************************************************
 EXP precond LBFGS => estimated nearest neighbor distance :  1.624       A
 EXP precond LBFGS => estimated cutoff distance :  3.247       A
 doing test perturbation to get energy scale for EXP preconditioner
 
                           -------------------------------
                                     Cell Contents
                           -------------------------------
 
            xxxxxxxxxxxxxxxxxxxxxxxxxxxxxxxxxxxxxxxxxxxxxxxxxxxxxxxxxxxxxxxxx
            x  Element         Atom        Fractional coordinates of atoms  x
            x                 Number           u          v          w      x
            x---------------------------------------------------------------x
            x  H                 1         0.491364   0.384749   0.549495   x
            x  H                 2         0.589396   0.432207   0.533074   x
            x  H                 3         0.412812   0.488979   0.568632   x
            x  H                 4         0.509567   0.535694   0.552258   x
            x  H                 5         0.554414   0.389254   0.485995   x
            x  H                 6         0.459636   0.339339   0.502497   x
            x  H                 7         0.336629   0.372387   0.466164   x
            x  H                 8         0.445407   0.354734   0.445984   x
            x  H                 9         0.356464   0.490081   0.459354   x
            x  H                10         0.376110   0.452807   0.424630   x
            x  H                11         0.610166   0.558363   0.479180   x
            x  H                12         0.518782   0.566578   0.402736   x
            x  H                13         0.675961   0.473570   0.422516   x
            x  H                14         0.373957   0.442380   0.516756   x
            x  H                15         0.465319   0.486172   0.502115   x
            x  H                16         0.537705   0.432918   0.601487   x
            x  H                17         0.633829   0.479836   0.585187   x
            x  H                18         0.580247   0.529294   0.633330   x
            x  H                19         0.456418   0.536217   0.620064   x
            x  H                20         0.552811   0.583562   0.603583   x
            x  C                 1         0.511200   0.433029   0.540240   x
            x  C                 2         0.492107   0.487954   0.562481   x
            x  C                 3         0.474173   0.385444   0.490469   x
            x  C                 4         0.412854   0.390012   0.461893   x
            x  C                 5         0.408517   0.458350   0.447035   x
            x  C                 6         0.554136   0.480453   0.590843   x
            x  C                 7         0.534875   0.535365   0.613160   x
            x  N                 1         0.447126   0.443004   0.511798   x
            x  O                 1         0.528946   0.568961   0.423561   x
            x  O                 2         0.618566   0.455009   0.431329   x
            x  O                 3         0.562235   0.524302   0.477713   x
            x  Si                1         0.531771   0.503138   0.443736   x
            xxxxxxxxxxxxxxxxxxxxxxxxxxxxxxxxxxxxxxxxxxxxxxxxxxxxxxxxxxxxxxxxx
 
 
------------------------------------------------------------------------ <-- SCF
SCF loop      Energy                           Energy gain       Timer   <-- SCF
                                               per atom          (sec)   <-- SCF
------------------------------------------------------------------------ <-- SCF
Initial  -3.19138572E+003                                         76.99  <-- SCF
      1  -3.19066113E+003                   -2.26435044E-002      77.79  <-- SCF
      2  -3.19069014E+003                    9.06445401E-004      78.94  <-- SCF
      3  -3.19066095E+003                   -9.11972216E-004      79.96  <-- SCF
      4  -3.19067920E+003                    5.70292773E-004      80.97  <-- SCF
      5  -3.19067939E+003                    5.81552180E-006      81.82  <-- SCF
      6  -3.19067959E+003                    6.24550186E-006      82.58  <-- SCF
      7  -3.19067966E+003                    2.42542349E-006      83.35  <-- SCF
      8  -3.19067972E+003                    1.76394777E-006      84.11  <-- SCF
      9  -3.19067977E+003                    1.63345100E-006      84.88  <-- SCF
     10  -3.19067980E+003                    8.35257569E-007      85.65  <-- SCF
     11  -3.19067985E+003                    1.43454365E-006      86.42  <-- SCF
     12  -3.19067986E+003                    4.18664722E-007      87.19  <-- SCF
------------------------------------------------------------------------ <-- SCF
 
Final energy =  -3190.679859740     eV
(energy not corrected for finite basis set)
 
(SEDC) Total Energy Correction : -0.828657E+00 eV

Dispersion corrected final energy* =  -3191.508516810     eV
 
 ************************************** Forces **************************************
 *                                                                                  *
 *                           Cartesian components (eV/A)                            *
 * -------------------------------------------------------------------------------- *
 *                         x                    y                    z              *
 *                                                                                  *
 * H               1     -0.04050              0.13487             -0.17004         *
 * H               2     -0.27774              0.01865             -0.10938         *
 * H               3      0.03043              0.00353             -0.03150         *
 * H               4     -0.01010             -0.02118             -0.06693         *
 * H               5     -0.22758              0.19598              0.10340         *
 * H               6      0.01882              0.27319              0.01107         *
 * H               7      0.13197              0.05184              0.02744         *
 * H               8     -0.01753              0.09247              0.18959         *
 * H               9      0.04502              0.11553             -0.08913         *
 * H              10      0.09567              0.03907              0.14321         *
 * H              11      0.66242              0.75324              0.24099         *
 * H              12     -0.13534             -0.00880             -1.06842         *
 * H              13      0.81719              0.37392             -0.52746         *
 * H              14     -0.54237             -0.06793              0.19290         *
 * H              15      0.47892              0.80028             -0.41221         *
 * H              16      0.00567              0.03197             -0.11147         *
 * H              17     -0.07098             -0.06111             -0.05667         *
 * H              18     -0.05539             -0.02040             -0.09661         *
 * H              19      0.05783              0.01345             -0.04536         *
 * H              20     -0.03559             -0.02297              0.00777         *
 * C               1     -0.62517              0.66846             -0.05546         *
 * C               2      0.00214             -0.00611              0.04852         *
 * C               3     -0.66010              0.71992             -0.20490         *
 * C               4     -0.03414             -0.30751             -0.20492         *
 * C               5      0.49048             -0.04416              0.12512         *
 * C               6      0.13542             -0.15050              0.12642         *
 * C               7     -0.09832              0.10268              0.09312         *
 * N               1      1.81238             -2.48093              0.70420         *
 * O               1     -0.12961              0.67800              1.02668         *
 * O               2     -0.62851             -1.18908              0.27087         *
 * O               3     -0.76293             -0.19622              0.71999         *
 * Si              1     -0.43249             -0.49016             -0.78083         *
 *                                                                                  *
 ************************************************************************************
 EXP precond LBFGS => estimated parameter mu :  1.000       eV/A**2
 LBFGS: finished iteration     0 with enthalpy= -3.19151143E+003 eV
  
 +-----------+-----------------+-----------------+------------+-----+ <-- LBFGS
 | Parameter |      value      |    tolerance    |    units   | OK? | <-- LBFGS
 +-----------+-----------------+-----------------+------------+-----+ <-- LBFGS
 |  dE/ion   |   0.000000E+000 |   2.000000E-005 |         eV | No  | <-- LBFGS
 |  |F|max   |   3.152085E+000 |   5.000000E-002 |       eV/A | No  | <-- LBFGS
 |  |dR|max  |   4.996004E-015 |   2.000000E-003 |          A | No  | <-- LBFGS
 +-----------+-----------------+-----------------+------------+-----+ <-- LBFGS
  

================================================================================
 Starting LBFGS iteration          1 ...
================================================================================
  
 +------------+-------------+-------------+-----------------+ <-- min LBFGS
 |    Step    |   lambda    |   F.delta'  |    enthalpy     | <-- min LBFGS
 +------------+-------------+-------------+-----------------+ <-- min LBFGS
 |  previous  |    0.000000 |    2.305132 |    -3191.511428 | <-- min LBFGS
 +------------+-------------+-------------+-----------------+ <-- min LBFGS
  

--------------------------------------------------------------------------------
 LBFGS: starting iteration         1 with trial guess (lambda=  0.705290)
--------------------------------------------------------------------------------
 
                           -------------------------------
                                     Cell Contents
                           -------------------------------
 
            xxxxxxxxxxxxxxxxxxxxxxxxxxxxxxxxxxxxxxxxxxxxxxxxxxxxxxxxxxxxxxxxx
            x  Element         Atom        Fractional coordinates of atoms  x
            x                 Number           u          v          w      x
            x---------------------------------------------------------------x
            x  H                 1         0.488704   0.385391   0.548999   x
            x  H                 2         0.584795   0.432213   0.532801   x
            x  H                 3         0.411295   0.487625   0.568299   x
            x  H                 4         0.507848   0.534058   0.551902   x
            x  H                 5         0.551426   0.391452   0.486543   x
            x  H                 6         0.458786   0.342152   0.502851   x
            x  H                 7         0.339495   0.372499   0.466560   x
            x  H                 8         0.446642   0.355258   0.446733   x
            x  H                 9         0.361159   0.490219   0.459433   x
            x  H                10         0.381061   0.452685   0.425239   x
            x  H                11         0.613353   0.565561   0.482096   x
            x  H                12         0.507926   0.570712   0.397832   x
            x  H                13         0.680191   0.466149   0.418428   x
            x  H                14         0.374474   0.438489   0.517956   x
            x  H                15         0.472057   0.486544   0.502264   x
            x  H                16         0.535235   0.431514   0.600721   x
            x  H                17         0.630577   0.477776   0.584625   x
            x  H                18         0.575897   0.527513   0.632387   x
            x  H                19         0.453388   0.534479   0.619353   x
            x  H                20         0.549035   0.581493   0.603083   x
            x  C                 1         0.506951   0.434293   0.540116   x
            x  C                 2         0.490364   0.486739   0.562232   x
            x  C                 3         0.471410   0.388241   0.490656   x
            x  C                 4         0.414755   0.389391   0.462010   x
            x  C                 5         0.414284   0.457747   0.447388   x
            x  C                 6         0.552019   0.478434   0.590494   x
            x  C                 7         0.531204   0.533912   0.612607   x
            x  N                 1         0.456926   0.435136   0.513200   x
            x  O                 1         0.519180   0.574754   0.422884   x
            x  O                 2         0.613203   0.442392   0.428956   x
            x  O                 3         0.557427   0.526632   0.480680   x
            x  Si                1         0.525220   0.499549   0.441086   x
            xxxxxxxxxxxxxxxxxxxxxxxxxxxxxxxxxxxxxxxxxxxxxxxxxxxxxxxxxxxxxxxxx
 
 
------------------------------------------------------------------------ <-- SCF
SCF loop      Energy                           Energy gain       Timer   <-- SCF
                                               per atom          (sec)   <-- SCF
------------------------------------------------------------------------ <-- SCF
Initial  -3.20675711E+003                                         88.53  <-- SCF
      1  -3.18325651E+003                   -7.34393737E-001      89.32  <-- SCF
      2  -3.18843397E+003                    1.61795848E-001      90.62  <-- SCF
      3  -3.18765495E+003                   -2.43444621E-002      91.80  <-- SCF
      4  -3.18774338E+003                    2.76339829E-003      92.91  <-- SCF
      5  -3.18778806E+003                    1.39630187E-003      93.99  <-- SCF
      6  -3.18779058E+003                    7.85951071E-005      95.17  <-- SCF
      7  -3.18779070E+003                    3.83751454E-006      96.13  <-- SCF
      8  -3.18779088E+003                    5.80542707E-006      97.07  <-- SCF
      9  -3.18779098E+003                    2.91735232E-006      97.98  <-- SCF
     10  -3.18779090E+003                   -2.49643446E-006      98.94  <-- SCF
     11  -3.18779120E+003                    9.50923613E-006      99.78  <-- SCF
     12  -3.18779154E+003                    1.04355301E-005     100.59  <-- SCF
     13  -3.18779187E+003                    1.05405994E-005     101.36  <-- SCF
     14  -3.18779230E+003                    1.33433322E-005     102.13  <-- SCF
     15  -3.18779278E+003                    1.48899485E-005     102.90  <-- SCF
     16  -3.18779308E+003                    9.40005207E-006     103.68  <-- SCF
     17  -3.18779359E+003                    1.59746424E-005     104.46  <-- SCF
     18  -3.18779388E+003                    9.03122308E-006     105.27  <-- SCF
     19  -3.18779410E+003                    7.03740542E-006     106.06  <-- SCF
     20  -3.18779423E+003                    3.99652437E-006     106.84  <-- SCF
     21  -3.18779431E+003                    2.33329702E-006     107.63  <-- SCF
     22  -3.18779432E+003                    4.52882287E-007     108.41  <-- SCF
     23  -3.18779440E+003                    2.43283671E-006     109.20  <-- SCF
     24  -3.18779437E+003                   -8.20572652E-007     109.99  <-- SCF
     25  -3.18779451E+003                    4.22755392E-006     110.79  <-- SCF
     26  -3.18779450E+003                   -3.25800342E-007     111.57  <-- SCF
     27  -3.18779466E+003                    5.09251436E-006     112.36  <-- SCF
     28  -3.18779475E+003                    2.89987052E-006     113.15  <-- SCF
     29  -3.18779479E+003                    1.24546286E-006     113.94  <-- SCF
     30  -3.18779496E+003                    5.08592737E-006     114.73  <-- SCF
     31  -3.18779506E+003                    3.34381493E-006     115.52  <-- SCF
     32  -3.18779525E+003                    5.76947677E-006     116.30  <-- SCF
     33  -3.18779538E+003                    4.11538359E-006     117.09  <-- SCF
     34  -3.18779558E+003                    6.39955172E-006     117.88  <-- SCF
     35  -3.18779575E+003                    5.09047458E-006     118.67  <-- SCF
     36  -3.18779585E+003                    3.16052062E-006     119.46  <-- SCF
     37  -3.18779595E+003                    3.30182910E-006     120.29  <-- SCF
     38  -3.18779602E+003                    2.04934508E-006     121.09  <-- SCF
     39  -3.18779606E+003                    1.37727488E-006     121.88  <-- SCF
     40  -3.18779610E+003                    1.17649529E-006     122.67  <-- SCF
     41  -3.18779612E+003                    4.78683585E-007     123.46  <-- SCF
------------------------------------------------------------------------ <-- SCF
 
Final energy =  -3187.796115628     eV
(energy not corrected for finite basis set)
 
(SEDC) Total Energy Correction : -0.822890E+00 eV

Dispersion corrected final energy* =  -3188.619005144     eV
 
 ************************************** Forces **************************************
 *                                                                                  *
 *                           Cartesian components (eV/A)                            *
 * -------------------------------------------------------------------------------- *
 *                         x                    y                    z              *
 *                                                                                  *
 * H               1      0.32827             -0.01872              0.52039         *
 * H               2      0.35694              0.01608              0.49896         *
 * H               3     -0.12749              0.09800              0.04825         *
 * H               4      0.00567              0.23870              0.00264         *
 * H               5      0.21353             -0.23830             -0.31838         *
 * H               6      0.15999             -0.48819             -0.45658         *
 * H               7     -0.41217              0.07318             -0.16979         *
 * H               8      0.59626             -0.73439             -0.33691         *
 * H               9      0.39534             -0.03742             -0.25889         *
 * H              10     -0.21810             -0.04788             -0.20243         *
 * H              11     -2.85696             -2.87661             -0.31593         *
 * H              12      0.66131              0.24622              4.62558         *
 * H              13     -3.61860             -1.87908              1.90778         *
 * H              14      2.57604             -0.18584             -0.44087         *
 * H              15      0.13335             -2.01229              0.92490         *
 * H              16     -0.08965             -0.45409              0.18562         *
 * H              17      0.33047             -0.01629             -0.03005         *
 * H              18      0.24143             -0.04543              0.42351         *
 * H              19     -0.24795             -0.03226              0.03290         *
 * H              20      0.07348              0.31034             -0.14919         *
 * C               1      2.66789             -2.64299              1.51719         *
 * C               2     -0.59427              0.76398              0.13374         *
 * C               3      2.14275             -3.02474              0.16623         *
 * C               4     -0.62709              1.36452              0.54044         *
 * C               5     -2.89063             -0.99035              0.31898         *
 * C               6     -0.21029              0.47025             -0.11197         *
 * C               7     -0.01647             -0.36944             -0.31349         *
 * N               1     -6.85385              6.80619             -2.37945         *
 * O               1     -0.40920             -2.47588             -3.56813         *
 * O               2      1.85675              3.59028             -1.23544         *
 * O               3      1.91440              1.89287             -2.33520         *
 * Si              1      4.51885              2.69959              0.77560         *
 *                                                                                  *
 ************************************************************************************
  
 +------------+-------------+-------------+-----------------+ <-- min LBFGS
 |    Step    |   lambda    |   F.delta'  |    enthalpy     | <-- min LBFGS
 +------------+-------------+-------------+-----------------+ <-- min LBFGS
 |  previous  |    0.000000 |    2.305132 |    -3191.511428 | <-- min LBFGS
 | trial step |    0.705290 |   -7.536131 |    -3188.619005 | <-- min LBFGS
 +------------+-------------+-------------+-----------------+ <-- min LBFGS
  

--------------------------------------------------------------------------------
 LBFGS: improving iteration         1 with line minimization (lambda=  0.165201)
--------------------------------------------------------------------------------
 
                           -------------------------------
                                     Cell Contents
                           -------------------------------
 
            xxxxxxxxxxxxxxxxxxxxxxxxxxxxxxxxxxxxxxxxxxxxxxxxxxxxxxxxxxxxxxxxx
            x  Element         Atom        Fractional coordinates of atoms  x
            x                 Number           u          v          w      x
            x---------------------------------------------------------------x
            x  H                 1         0.489826   0.384290   0.549188   x
            x  H                 2         0.587409   0.431610   0.532806   x
            x  H                 3         0.411593   0.488107   0.568381   x
            x  H                 4         0.508245   0.534814   0.551986   x
            x  H                 5         0.552794   0.389160   0.485885   x
            x  H                 6         0.458537   0.339399   0.502353   x
            x  H                 7         0.336529   0.371804   0.466008   x
            x  H                 8         0.444806   0.354251   0.445901   x
            x  H                 9         0.356765   0.489559   0.459120   x
            x  H                10         0.376445   0.452192   0.424506   x
            x  H                11         0.610014   0.559587   0.479621   x
            x  H                12         0.515318   0.567098   0.401315   x
            x  H                13         0.676110   0.471262   0.421291   x
            x  H                14         0.373257   0.440876   0.516820   x
            x  H                15         0.465994   0.485701   0.501922   x
            x  H                16         0.536204   0.431992   0.601166   x
            x  H                17         0.632185   0.478790   0.584898   x
            x  H                18         0.578314   0.528371   0.633002   x
            x  H                19         0.454811   0.535314   0.619776   x
            x  H                20         0.551006   0.582659   0.603326   x
            x  C                 1         0.509285   0.432728   0.540012   x
            x  C                 2         0.490783   0.487113   0.562244   x
            x  C                 3         0.472618   0.385490   0.490278   x
            x  C                 4         0.412436   0.389257   0.461669   x
            x  C                 5         0.409008   0.457627   0.446860   x
            x  C                 6         0.552720   0.479417   0.590609   x
            x  C                 7         0.533093   0.534527   0.612901   x
            x  N                 1         0.448529   0.440569   0.511906   x
            x  O                 1         0.525737   0.569873   0.423136   x
            x  O                 2         0.616416   0.451470   0.430509   x
            x  O                 3         0.560190   0.524335   0.478165   x
            x  Si                1         0.529315   0.501758   0.442856   x
            xxxxxxxxxxxxxxxxxxxxxxxxxxxxxxxxxxxxxxxxxxxxxxxxxxxxxxxxxxxxxxxxx
 
 
------------------------------------------------------------------------ <-- SCF
SCF loop      Energy                           Energy gain       Timer   <-- SCF
                                               per atom          (sec)   <-- SCF
------------------------------------------------------------------------ <-- SCF
Initial  -3.21209211E+003                                        124.81  <-- SCF
      1  -3.18905541E+003                   -7.19896805E-001     125.60  <-- SCF
      2  -3.19122781E+003                    6.78875401E-002     126.88  <-- SCF
      3  -3.19072117E+003                   -1.58325700E-002     128.04  <-- SCF
      4  -3.19082406E+003                    3.21529954E-003     129.07  <-- SCF
      5  -3.19086310E+003                    1.21999154E-003     130.15  <-- SCF
      6  -3.19086428E+003                    3.68753490E-005     131.28  <-- SCF
      7  -3.19086410E+003                   -5.48462059E-006     132.18  <-- SCF
      8  -3.19086389E+003                   -6.52935814E-006     133.05  <-- SCF
      9  -3.19086393E+003                    1.02117078E-006     133.96  <-- SCF
     10  -3.19086406E+003                    4.25723591E-006     134.76  <-- SCF
     11  -3.19086460E+003                    1.68917356E-005     135.62  <-- SCF
     12  -3.19086496E+003                    1.10462521E-005     136.39  <-- SCF
     13  -3.19086536E+003                    1.24818449E-005     137.19  <-- SCF
     14  -3.19086558E+003                    6.89023751E-006     137.97  <-- SCF
     15  -3.19086571E+003                    4.18932625E-006     138.75  <-- SCF
     16  -3.19086582E+003                    3.41240948E-006     139.52  <-- SCF
     17  -3.19086593E+003                    3.32415772E-006     140.30  <-- SCF
     18  -3.19086602E+003                    2.93639067E-006     141.09  <-- SCF
     19  -3.19086616E+003                    4.24292029E-006     141.87  <-- SCF
     20  -3.19086624E+003                    2.60300164E-006     142.65  <-- SCF
     21  -3.19086637E+003                    4.25449902E-006     143.44  <-- SCF
     22  -3.19086643E+003                    1.79033274E-006     144.23  <-- SCF
     23  -3.19086649E+003                    1.97397444E-006     145.02  <-- SCF
     24  -3.19086653E+003                    1.09644596E-006     145.81  <-- SCF
     25  -3.19086656E+003                    1.03481718E-006     146.61  <-- SCF
     26  -3.19086662E+003                    1.71721016E-006     147.40  <-- SCF
     27  -3.19086668E+003                    1.80477776E-006     148.19  <-- SCF
     28  -3.19086672E+003                    1.32867973E-006     148.98  <-- SCF
     29  -3.19086682E+003                    3.13455967E-006     149.80  <-- SCF
     30  -3.19086685E+003                    1.12067282E-006     150.61  <-- SCF
     31  -3.19086695E+003                    2.99736656E-006     151.40  <-- SCF
     32  -3.19086703E+003                    2.41475273E-006     152.19  <-- SCF
     33  -3.19086715E+003                    3.83982071E-006     152.98  <-- SCF
     34  -3.19086722E+003                    2.27993626E-006     153.77  <-- SCF
     35  -3.19086733E+003                    3.44278675E-006     154.56  <-- SCF
     36  -3.19086746E+003                    3.99779854E-006     155.35  <-- SCF
     37  -3.19086752E+003                    1.95682491E-006     156.14  <-- SCF
     38  -3.19086759E+003                    1.99856451E-006     156.93  <-- SCF
     39  -3.19086764E+003                    1.61816757E-006     157.72  <-- SCF
     40  -3.19086766E+003                    7.05439259E-007     158.50  <-- SCF
     41  -3.19086769E+003                    9.73740455E-007     159.29  <-- SCF
------------------------------------------------------------------------ <-- SCF
 
Final energy =  -3190.867693765     eV
(energy not corrected for finite basis set)
 
(SEDC) Total Energy Correction : -0.825161E+00 eV

Dispersion corrected final energy* =  -3191.692854373     eV
 
 ************************************** Forces **************************************
 *                                                                                  *
 *                           Cartesian components (eV/A)                            *
 * -------------------------------------------------------------------------------- *
 *                         x                    y                    z              *
 *                                                                                  *
 * H               1      0.04317              0.11733             -0.05045         *
 * H               2     -0.16149             -0.01241              0.02499         *
 * H               3     -0.01774              0.02538             -0.01565         *
 * H               4     -0.00458             -0.00379             -0.02708         *
 * H               5     -0.14304              0.11135              0.02650         *
 * H               6      0.05488              0.14031             -0.08411         *
 * H               7     -0.02161              0.05283             -0.01858         *
 * H               8      0.11274             -0.08011              0.07871         *
 * H               9      0.11566              0.08238             -0.12046         *
 * H              10      0.02917              0.01743              0.07730         *
 * H              11     -0.53170             -0.49499              0.01963         *
 * H              12      0.15589              0.06027              1.07880         *
 * H              13     -0.86704             -0.45040              0.39272         *
 * H              14      0.45759             -0.06047             -0.02605         *
 * H              15      0.24711             -0.31055              0.12564         *
 * H              16     -0.01179             -0.06493             -0.05172         *
 * H              17      0.01530             -0.05604             -0.03376         *
 * H              18     -0.02359             -0.01783             -0.00678         *
 * H              19     -0.02915             -0.02407             -0.03145         *
 * H              20     -0.01356             -0.00119             -0.00519         *
 * C               1     -0.02841             -0.03798              0.05378         *
 * C               2     -0.09805              0.16330              0.04630         *
 * C               3     -0.06666              0.04379              0.02298         *
 * C               4     -0.12067              0.07859             -0.03757         *
 * C               5     -0.15867             -0.19389              0.10974         *
 * C               6      0.05784              0.00320              0.07879         *
 * C               7     -0.04411              0.00275             -0.02227         *
 * N               1     -0.02305             -0.08092             -0.04728         *
 * O               1     -0.29660             -0.23935             -0.73663         *
 * O               2      0.37107              0.31691             -0.31937         *
 * O               3      0.08661              0.49600             -0.57015         *
 * Si              1      0.91449              0.41710              0.06869         *
 *                                                                                  *
 ************************************************************************************
  
 +------------+-------------+-------------+-----------------+ <-- min LBFGS
 |    Step    |   lambda    |   F.delta'  |    enthalpy     | <-- min LBFGS
 +------------+-------------+-------------+-----------------+ <-- min LBFGS
 |  previous  |    0.000000 |    2.305132 |    -3191.511428 | <-- min LBFGS
 | trial step |    0.705290 |   -7.536131 |    -3188.619005 | <-- min LBFGS
 |  line step |    0.165201 |   -0.572510 |    -3191.692854 | <-- min LBFGS
 +------------+-------------+-------------+-----------------+ <-- min LBFGS
  
 LBFGS: finished iteration     1 with enthalpy= -3.19169285E+003 eV
  
 +-----------+-----------------+-----------------+------------+-----+ <-- LBFGS
 | Parameter |      value      |    tolerance    |    units   | OK? | <-- LBFGS
 +-----------+-----------------+-----------------+------------+-----+ <-- LBFGS
 |  dE/ion   |   5.669577E-003 |   2.000000E-005 |         eV | No  | <-- LBFGS
 |  |F|max   |   1.091669E+000 |   5.000000E-002 |       eV/A | No  | <-- LBFGS
 |  |dR|max  |   6.197494E-002 |   2.000000E-003 |          A | No  | <-- LBFGS
 +-----------+-----------------+-----------------+------------+-----+ <-- LBFGS
  

================================================================================
 Starting LBFGS iteration          2 ...
================================================================================
  
 +------------+-------------+-------------+-----------------+ <-- min LBFGS
 |    Step    |   lambda    |   F.delta'  |    enthalpy     | <-- min LBFGS
 +------------+-------------+-------------+-----------------+ <-- min LBFGS
 |  previous  |    0.000000 |    0.708978 |    -3191.692854 | <-- min LBFGS
 +------------+-------------+-------------+-----------------+ <-- min LBFGS
  

--------------------------------------------------------------------------------
 LBFGS: starting iteration         2 with trial guess (lambda=  1.000000)
--------------------------------------------------------------------------------
 
                           -------------------------------
                                     Cell Contents
                           -------------------------------
 
            xxxxxxxxxxxxxxxxxxxxxxxxxxxxxxxxxxxxxxxxxxxxxxxxxxxxxxxxxxxxxxxxx
            x  Element         Atom        Fractional coordinates of atoms  x
            x                 Number           u          v          w      x
            x---------------------------------------------------------------x
            x  H                 1         0.490762   0.386176   0.548546   x
            x  H                 2         0.585239   0.432321   0.532496   x
            x  H                 3         0.411583   0.488334   0.567832   x
            x  H                 4         0.508219   0.534628   0.551413   x
            x  H                 5         0.552200   0.392468   0.486184   x
            x  H                 6         0.461172   0.343310   0.502226   x
            x  H                 7         0.340475   0.373570   0.466385   x
            x  H                 8         0.449046   0.355410   0.446809   x
            x  H                 9         0.363451   0.490950   0.459208   x
            x  H                10         0.382251   0.453021   0.425688   x
            x  H                11         0.602374   0.560628   0.479448   x
            x  H                12         0.510384   0.568639   0.405459   x
            x  H                13         0.661460   0.463064   0.421798   x
            x  H                14         0.381185   0.438787   0.517208   x
            x  H                15         0.474566   0.484897   0.501888   x
            x  H                16         0.535319   0.430986   0.600165   x
            x  H                17         0.631079   0.477444   0.584077   x
            x  H                18         0.575346   0.527170   0.631871   x
            x  H                19         0.452545   0.534159   0.618720   x
            x  H                20         0.548511   0.581415   0.602478   x
            x  C                 1         0.508780   0.434109   0.539777   x
            x  C                 2         0.490378   0.487681   0.561842   x
            x  C                 3         0.473425   0.388661   0.490328   x
            x  C                 4         0.415668   0.390464   0.461934   x
            x  C                 5         0.414519   0.457669   0.447660   x
            x  C                 6         0.552301   0.478433   0.590064   x
            x  C                 7         0.530588   0.533649   0.611995   x
[...]
 * H              20     -0.00113              0.00031             -0.00162         *
 * C               1     -0.01493             -0.00326              0.00844         *
 * C               2      0.00128             -0.00365              0.00052         *
 * C               3      0.00218             -0.00420             -0.00584         *
 * C               4      0.01044              0.00361              0.00114         *
 * C               5     -0.00143             -0.00012              0.00517         *
 * C               6      0.00721             -0.00231             -0.01059         *
 * C               7      0.00378              0.00971              0.00981         *
 * N               1     -0.00377              0.00072              0.00428         *
 * O               1      0.00177              0.00485             -0.00670         *
 * O               2     -0.00306             -0.00030              0.00254         *
 * O               3     -0.01009             -0.01531              0.00096         *
 * Si              1      0.00408             -0.00560              0.00927         *
 *                                                                                  *
 ************************************************************************************
 
 Pseudo atomic calculation performed for H 1s1
 
 Converged in 13 iterations to a total energy of -12.4790 eV
 
 Pseudo atomic calculation performed for C 2s2 2p2
 
 Converged in 17 iterations to a total energy of -148.5208 eV
 
 Pseudo atomic calculation performed for N 2s2 2p3
 
 Converged in 21 iterations to a total energy of -268.1820 eV
 
 Pseudo atomic calculation performed for O 2s2 2p4
 
 Converged in 23 iterations to a total energy of -432.6536 eV
 
 Pseudo atomic calculation performed for Si 3s2 3p2
 
 Converged in 11 iterations to a total energy of -165.0683 eV
Charge spilling parameter for spin component 1 = 1.53%
 
            Orbital Populations       
     Ion    Atom   Orbital             Charge
  -------------------------------------------
      H     1      S                    0.694
      H     2      S                    0.693
      H     3      S                    0.733
      H     4      S                    0.735
      H     5      S                    0.698
      H     6      S                    0.683
      H     7      S                    0.716
      H     8      S                    0.676
      H     9      S                    0.735
      H    10      S                    0.686
      H    11      S                    0.454
      H    12      S                    0.451
      H    13      S                    0.459
      H    14      S                    0.525
      H    15      S                    0.557
      H    16      S                    0.725
      H    17      S                    0.732
      H    18      S                    0.701
      H    19      S                    0.728
      H    20      S                    0.733
      C     1      S                    1.297
      C     1      Px                   1.114
      C     1      Py                   1.154
      C     1      Pz                   0.837
      C     2      S                    1.297
      C     2      Px                   1.155
      C     2      Py                   1.058
      C     2      Pz                   1.008
      C     3      S                    1.296
      C     3      Px                   1.163
      C     3      Py                   1.032
      C     3      Pz                   0.919
      C     4      S                    1.307
      C     4      Px                   1.149
      C     4      Py                   1.059
      C     4      Pz                   1.027
      C     5      S                    1.407
      C     5      Px                   1.282
      C     5      Py                   1.073
      C     5      Pz                   1.219
      C     6      S                    1.305
      C     6      Px                   1.124
      C     6      Py                   1.119
      C     6      Pz                   0.962
      C     7      S                    1.399
      C     7      Px                   1.199
      C     7      Py                   1.075
      C     7      Pz                   1.119
      N     1      S                    1.571
      N     1      Px                   1.381
      N     1      Py                   1.381
      N     1      Pz                   1.265
      O     1      S                    1.852
      O     1      Px                   1.894
      O     1      Py                   1.783
      O     1      Pz                   1.560
      O     2      S                    1.855
      O     2      Px                   1.565
      O     2      Py                   1.832
      O     2      Pz                   1.842
      O     3      S                    1.848
      O     3      Px                   1.838
      O     3      Py                   1.667
      O     3      Pz                   1.744
     Si     1      S                    0.736
     Si     1      Px                   0.463
     Si     1      Py                   0.329
     Si     1      Pz                   0.323
  -------------------------------------------
                           Total:      74.000
  -------------------------------------------
 
     Atomic Populations (Mulliken)
     -----------------------------
Species          Ion     s       p       d       f      Total   Charge (e)
==========================================================================
  H               1     0.694   0.000   0.000   0.000   0.694     0.306
  H               2     0.693   0.000   0.000   0.000   0.693     0.307
  H               3     0.733   0.000   0.000   0.000   0.733     0.267
  H               4     0.735   0.000   0.000   0.000   0.735     0.265
  H               5     0.698   0.000   0.000   0.000   0.698     0.302
  H               6     0.683   0.000   0.000   0.000   0.683     0.317
  H               7     0.716   0.000   0.000   0.000   0.716     0.284
  H               8     0.676   0.000   0.000   0.000   0.676     0.324
  H               9     0.735   0.000   0.000   0.000   0.735     0.265
  H              10     0.686   0.000   0.000   0.000   0.686     0.314
  H              11     0.454   0.000   0.000   0.000   0.454     0.546
  H              12     0.451   0.000   0.000   0.000   0.451     0.549
  H              13     0.459   0.000   0.000   0.000   0.459     0.541
  H              14     0.525   0.000   0.000   0.000   0.525     0.475
  H              15     0.557   0.000   0.000   0.000   0.557     0.443
  H              16     0.725   0.000   0.000   0.000   0.725     0.275
  H              17     0.732   0.000   0.000   0.000   0.732     0.268
  H              18     0.701   0.000   0.000   0.000   0.701     0.299
  H              19     0.728   0.000   0.000   0.000   0.728     0.272
  H              20     0.733   0.000   0.000   0.000   0.733     0.267
  C               1     1.297   3.105   0.000   0.000   4.402    -0.402
  C               2     1.297   3.221   0.000   0.000   4.518    -0.518
  C               3     1.296   3.115   0.000   0.000   4.411    -0.411
  C               4     1.307   3.235   0.000   0.000   4.542    -0.542
  C               5     1.407   3.574   0.000   0.000   4.981    -0.981
  C               6     1.305   3.206   0.000   0.000   4.511    -0.511
  C               7     1.399   3.393   0.000   0.000   4.792    -0.792
  N               1     1.571   4.027   0.000   0.000   5.598    -0.598
  O               1     1.852   5.236   0.000   0.000   7.088    -1.088
  O               2     1.855   5.238   0.000   0.000   7.093    -1.093
  O               3     1.848   5.250   0.000   0.000   7.097    -1.097
  Si              1     0.736   1.115   0.000   0.000   1.852     2.148
==========================================================================
 
                 Bond                   Population      Length (A)
======================================================================
              H 13 -- O 2                    0.53        0.96886
              H 12 -- O 1                    0.53        0.96995
              H 11 -- O 3                    0.52        0.97030
              H 14 -- N 1                    0.68        1.02777
              H 15 -- N 1                    0.66        1.04955
              H 6  -- C 3                    0.85        1.09716
              H 2  -- C 1                    0.85        1.09797
              H 1  -- C 1                    0.85        1.09853
              H 18 -- C 7                    0.81        1.09861
              H 5  -- C 3                    0.86        1.09942
              H 19 -- C 7                    0.81        1.09962
              H 8  -- C 4                    0.83        1.09987
              H 10 -- C 5                    0.82        1.10006
              H 20 -- C 7                    0.81        1.10013
              H 16 -- C 6                    0.84        1.10155
              H 7  -- C 4                    0.84        1.10174
              H 3  -- C 2                    0.84        1.10264
              H 17 -- C 6                    0.84        1.10287
              H 4  -- C 2                    0.85        1.10297
              H 9  -- C 5                    0.82        1.10351
               C 3 -- N 1                    0.51        1.50593
               C 1 -- N 1                    0.52        1.50815
               C 1 -- C 2                    0.71        1.51957
               C 3 -- C 4                    0.70        1.52535
               C 6 -- C 7                    0.65        1.52823
               C 2 -- C 6                    0.68        1.53476
               C 4 -- C 5                    0.64        1.54544
               O 1 -- Si 1                   0.53        1.63486
               O 2 -- Si 1                   0.50        1.64231
               O 3 -- Si 1                   0.43        1.68153
              H 14 -- H 15                  -0.10        1.68969
              H 9  -- H 10                  -0.10        1.74870
              H 7  -- H 8                   -0.11        1.76362
              H 16 -- H 17                  -0.12        1.76533
              H 18 -- H 19                  -0.10        1.77497
              H 3  -- H 4                   -0.12        1.77573
              H 18 -- H 20                  -0.10        1.77624
              H 19 -- H 20                  -0.11        1.77869
              H 1  -- H 2                   -0.11        1.78253
              H 5  -- H 6                   -0.11        1.78389
              H 15 -- O 3                    0.09        1.78446
               C 5 -- Si 1                   0.63        1.87216
              H 15 -- C 3                   -0.12        2.06844
              H 15 -- C 1                   -0.12        2.07536
              H 5  -- N 1                   -0.11        2.08508
              H 2  -- N 1                   -0.11        2.08786
              H 14 -- C 3                   -0.12        2.09898
              H 14 -- C 1                   -0.12        2.09966
              H 6  -- N 1                   -0.11        2.10703
              H 8  -- C 3                   -0.13        2.10928
              H 1  -- N 1                   -0.11        2.11056
              H 10 -- C 4                   -0.11        2.15776
              H 4  -- C 1                   -0.13        2.15776
              H 3  -- C 1                   -0.14        2.15860
              H 7  -- C 3                   -0.14        2.15909
              H 4  -- C 6                   -0.12        2.16428
              H 17 -- C 2                   -0.13        2.16432
              H 16 -- C 7                   -0.13        2.16455
              H 16 -- C 2                   -0.13        2.16493
              H 3  -- C 6                   -0.12        2.16697
              H 17 -- C 7                   -0.13        2.16702
              H 8  -- C 5                   -0.12        2.17241
              H 2  -- C 2                   -0.12        2.17351
              H 18 -- C 6                   -0.12        2.17778
              H 19 -- C 6                   -0.12        2.17967
              H 7  -- C 5                   -0.14        2.18049
              H 5  -- C 4                   -0.12        2.18077
              H 20 -- C 6                   -0.12        2.18366
              H 6  -- C 4                   -0.12        2.18411
              H 1  -- C 2                   -0.12        2.18498
              H 9  -- C 4                   -0.11        2.19742
              H 13 -- Si 1                  -0.13        2.29416
              H 5  -- H 15                  -0.04        2.29460
              H 11 -- Si 1                  -0.12        2.29754
              H 12 -- Si 1                  -0.12        2.30060
              H 2  -- H 15                  -0.03        2.37767
              H 8  -- H 10                  -0.05        2.39841
              H 2  -- H 5                   -0.02        2.40043
              H 5  -- H 8                   -0.04        2.41781
              H 1  -- H 14                  -0.03        2.42189
              H 1  -- H 6                   -0.02        2.43217
              H 6  -- H 7                   -0.04        2.44025
              H 9  -- Si 1                  -0.14        2.44078
              H 7  -- H 9                   -0.05        2.44658
              H 10 -- Si 1                  -0.11        2.45439
              H 4  -- H 15                  -0.01        2.45620
              H 6  -- H 14                  -0.02        2.49264
              H 4  -- H 17                  -0.04        2.49883
              H 16 -- H 18                  -0.03        2.49936
              H 17 -- H 18                  -0.03        2.51000
               C 2 -- N 1                   -0.13        2.51225
              H 6  -- H 8                   -0.02        2.51245
              H 2  -- H 4                   -0.03        2.51535
               C 1 -- C 3                   -0.15        2.51591
               C 4 -- N 1                   -0.13        2.52103
               C 1 -- C 6                   -0.15        2.52358
              H 1  -- H 3                   -0.03        2.52535
              H 3  -- H 16                  -0.03        2.52768
              H 16 -- H 19                  -0.03        2.52917
              H 17 -- H 20                  -0.03        2.52957
              H 11 -- H 15                  -0.01        2.53778
              H 9  -- H 15                  -0.01        2.54181
               C 2 -- C 7                   -0.15        2.54222
              H 7  -- H 10                  -0.02        2.55285
              H 3  -- H 19                  -0.01        2.56633
              H 1  -- H 16                  -0.01        2.56816
              H 2  -- H 17                  -0.01        2.57045
              H 3  -- H 14                  -0.00        2.57859
               C 3 -- C 5                   -0.15        2.59884
               O 1 -- O 3                   -0.08        2.60503
              H 4  -- H 20                  -0.01        2.60715
              H 2  -- C 3                   -0.04        2.64453
              H 7  -- H 14                  -0.00        2.64597
              H 6  -- C 1                   -0.04        2.65869
              H 11 -- O 1                   -0.01        2.66061
              H 15 -- C 2                   -0.04        2.67434
              H 14 -- C 4                   -0.04        2.67938
              H 5  -- O 2                   -0.00        2.68441
              H 15 -- C 5                   -0.02        2.70889
              H 5  -- C 1                   -0.03        2.73212
              H 16 -- C 1                   -0.04        2.73383
              H 4  -- N 1                   -0.03        2.73931
               O 2 -- O 3                   -0.07        2.74596
               N 1 -- O 3                   -0.11        2.74714
              H 1  -- C 3                   -0.03        2.74720
              H 14 -- C 2                   -0.03        2.74981
              H 3  -- C 7                   -0.04        2.75859
              H 17 -- C 1                   -0.04        2.75918
              H 15 -- C 4                   -0.02        2.76654
              H 3  -- N 1                   -0.02        2.76789
               O 1 -- O 2                   -0.07        2.76852
              H 4  -- C 7                   -0.03        2.78439
              H 2  -- C 6                   -0.03        2.78964
              H 5  -- O 3                   -0.00        2.79012
              H 9  -- H 14                  -0.01        2.79150
               C 5 -- O 3                   -0.11        2.79482
              H 15 -- Si 1                  -0.04        2.79700
               C 5 -- O 2                   -0.11        2.79715
              H 19 -- C 2                   -0.04        2.80400
              H 1  -- C 6                   -0.03        2.81166
              H 20 -- C 2                   -0.04        2.81595
              H 2  -- H 6                   -0.01        2.85225
              H 7  -- N 1                   -0.02        2.88137
              H 9  -- O 3                   -0.01        2.88694
               C 4 -- Si 1                  -0.12        2.90617
              H 9  -- N 1                   -0.01        2.92957
              H 5  -- C 5                   -0.02        2.93274
              H 5  -- Si 1                  -0.03        2.93529
              H 6  -- H 15                   0.03        2.95198
              H 5  -- H 14                   0.03        2.95206
              H 2  -- H 14                   0.03        2.95624
              H 1  -- H 15                   0.03        2.96529
              H 8  -- O 2                   -0.00        2.98623
              H 13 -- O 1                   -0.01        2.98984
               C 5 -- O 1                   -0.08        2.99576
======================================================================
 
 
     Hirshfeld Analysis
     ------------------
Species   Ion     Hirshfeld Charge (e)
======================================
  H        1                 0.06
  H        2                 0.06
  H        3                 0.05
  H        4                 0.04
  H        5                 0.06
  H        6                 0.07
  H        7                 0.05
  H        8                 0.07
  H        9                 0.04
  H       10                 0.06
  H       11                 0.18
  H       12                 0.19
  H       13                 0.18
  H       14                 0.17
  H       15                 0.12
  H       16                 0.05
  H       17                 0.04
  H       18                 0.06
  H       19                 0.04
  H       20                 0.04
  C        1                 0.01
  C        2                -0.06
  C        3                 0.01
  C        4                -0.05
  C        5                -0.15
  C        6                -0.05
  C        7                -0.10
  N        1                 0.02
  O        1                -0.27
  O        2                -0.27
  O        3                -0.25
  Si       1                 0.48
======================================
 

Writing analysis data to Conf_0021.castep_bin

Writing model to Conf_0021.check
 
 A BibTeX formatted list of references used in this run has been written to 
 Conf_0021.bib
 
Initialisation time =     24.63 s
Calculation time    =   1011.19 s
Finalisation time   =      1.09 s
Total time          =   1036.91 s
Peak Memory Use     = 7921220 kB
 
Overall parallel efficiency rating: Satisfactory (67%)
 
Data was distributed by:-
G-vector (48-way); efficiency rating: Satisfactory (67%)
High Water Mark     = 1898112 kB
