 Job started on host drago31040137.mgmt.cc.csic.es
 at Sun Mar 31 01:25:50 2024

 +-------------------------------------------------+
 |                                                 |
 |      CCC   AA    SSS  TTTTT  EEEEE  PPPP        |
 |     C     A  A  S       T    E      P   P       |
 |     C     AAAA   SS     T    EEE    PPPP        |
 |     C     A  A     S    T    E      P           |
 |      CCC  A  A  SSS     T    EEEEE  P           |
 |                                                 |
 +-------------------------------------------------+
 |                                                 |
 | Materials Studio CASTEP version 2024            |
 | Ab Initio Total Energy Program                  |
 |                                                 |
 | Authors:                                        |
 | M. Segall, M. Probert, C. Pickard, P. Hasnip,   |
 | S. Clark, K. Refson, J. R. Yates,               |
 | A. Bartok-Partay, M. Payne                      |
 |                                                 |
 | Contributors:                                   |
 | P. Lindan, P. Haynes, J. White, V. Milman,      |
 | N. Govind, M. Gibson, P. Tulip, V. Cocula,      |
 | B. Montanari, D. Quigley, M. Glover,            |
 | L. Bernasconi, A. Perlov, M. Plummer,           |
 | E. McNellis, J. Meyer, J. Gale, D. Jochym       |
 | J. Aarons, B. Walker, R. Gillen, D. Jones       |
 | T. Green, I. J. Bush, C. J. Armstrong,          |
 | E. J. Higgins, E. L. Brown, M. S. McFly,        |
 | J. Wilkins, B-C. Shih, P. J. P. Byrne,          |
 | R. J. Maurer, J. C. Womack, J. Dziedzic,        |
 | L. LeBlanc, T. K. Stenczel, J. Kermode,         |
 | S. Sturniolo, B. Shi, B. Durham, M. Evans,      |
 | M. J. Smith, A. Tamerus, Z. Hawkhead,           |
 | V. Ravindran, T. Hollins, S. A. Joyce,          |
 | R. T. Strong, A. M. Reilly                      |
 |                                                 |
 | Copyright (c) 2000 - 2023                       |
 |                                                 |
 | Please cite                                     |
 |                                                 |
 |     "First principles methods using CASTEP"     |
 |                                                 |
 |         Zeitschrift fuer Kristallographie       |
 |           220(5-6) pp. 567-570 (2005)           |
 |                                                 |
 | S. J. Clark, M. D. Segall, C. J. Pickard,       |
 | P. J. Hasnip, M. J. Probert, K. Refson,         |
 | M. C. Payne                                     |
 |                                                 |
 |       in all publications arising from          |
 |              your use of CASTEP                 |
 |                                                 |
 +-------------------------------------------------+
 |                                                 |
 |              http://www.castep.org              |
 |                                                 |
 +-------------------------------------------------+
 
 
 This version was compiled for x86_64-rhel7-intel19.0 on Oct 24 2023
 Code version:    a9f326b
 Intel(R) Math Kernel Library Version 2019.0.4 
 Fundamental constants values: CODATA 2018
 
License checkout of MS_castep successful
 
 
 Atomic calculation performed for H: 1s1
 
 Converged in 41 iterations to an ae energy of -12.488 eV
 
 Identity difference: 2.63E-05
 
   ============================================================                
   | Pseudopotential Report - Date of generation 31-03-2024   |                
   ------------------------------------------------------------                
   | Element: H Ionic charge:  1.00 Level of theory: PBE      |                
   | Atomic Solver: Koelling-Harmon                           |                
   |                                                          |                
   |               Reference Electronic Structure             |                
   |         Orbital         Occupation         Energy        |                
   |            1s              1.000           -0.239        |                
   |                                                          |                
   |                 Pseudopotential Definition               |                
   |        Beta     l      e      Rc     scheme   norm       |                
   |          1      0   -0.239   0.599     qc      0         |                
   |          2      0    0.250   0.599     qc      0         |                
   |         loc     1    0.000   0.599     pn      0         |                
   |                                                          |                
   | Augmentation charge Rinner = 0.421                       |                
   | No partial core correction                               |                
   ------------------------------------------------------------                
   | "1|0.6|9|10|15|10UU(qc=8)[]"                             |                
   ------------------------------------------------------------                
   |      Author: Chris J. Pickard, Cambridge University      |                
   ============================================================                
 
 Doing a self consistent calculation for the test configuration
 
 Atomic calculation performed for H: 1s1
 
 Converged in 41 iterations to an ae energy of -12.488 eV
 
 ---------------------------------------
 AE eigenvalue nl 10 =       -0.23860176
 ---------------------------------------
 PS eigenvalue nl 10 =       -0.23857601
 ---------------------------------------
 Maximum eigenvalue error:   2.57E-05
 
 Derived cutoff energies: C=   1 M=   6 F=  10 E=  20
 
 Checking for ghost states up to   1.51185 Ha
 
 No Ghost States Identified
 
 ***************************************
 
 Atomic calculation performed for C: 1s2 2s2 2p2
 
 Converged in 54 iterations to an ae energy of -1027.632 eV
 
 Identity difference: 2.37E-04
 
   ============================================================                
   | Pseudopotential Report - Date of generation 31-03-2024   |                
   ------------------------------------------------------------                
   | Element: C Ionic charge:  4.00 Level of theory: PBE      |                
   | Atomic Solver: Koelling-Harmon                           |                
   |                                                          |                
   |               Reference Electronic Structure             |                
   |         Orbital         Occupation         Energy        |                
   |            2s              2.000           -0.505        |                
   |            2p              2.000           -0.194        |                
   |                                                          |                
   |                 Pseudopotential Definition               |                
   |        Beta     l      e      Rc     scheme   norm       |                
   |          1      0   -0.505   1.395     qc      0         |                
   |          2      0    0.250   1.395     qc      0         |                
   |          3      1   -0.194   1.395     qc      0         |                
   |          4      1    0.250   1.395     qc      0         |                
   |         loc     2    0.000   1.395     pn      0         |                
   |                                                          |                
   | Augmentation charge Rinner = 0.983                       |                
   | Partial core correction Rc = 0.983                       |                
   ------------------------------------------------------------                
   | "2|1.4|11|12|14.7|20UU:21UU(qc=7)[]"                     |                
   ------------------------------------------------------------                
   |      Author: Chris J. Pickard, Cambridge University      |                
   ============================================================                
 
 Doing a self consistent calculation for the test configuration
 
 Atomic calculation performed for C: 1s2 2s2 2p2
 
 Converged in 54 iterations to an ae energy of -1027.632 eV
 
 ---------------------------------------
 AE eigenvalue nl 10 =      -10.04653081
 AE eigenvalue nl 20 =       -0.50533429
 AE eigenvalue nl 21 =       -0.19423807
 ---------------------------------------
 PS eigenvalue nl 20 =       -0.50531853
 PS eigenvalue nl 21 =       -0.19422214
 ---------------------------------------
 Maximum eigenvalue error:   1.59E-05
 
 Derived cutoff energies: C=   6 M=  10 F=  12 E=  16
 
 Checking for ghost states up to   1.47183 Ha
 
 No Ghost States Identified
 
 ***************************************
 
 Atomic calculation performed for N: 1s2 2s2 2p3
 
 Converged in 55 iterations to an ae energy of -1481.742 eV
 
 Identity difference: 2.27E-04
 
   ============================================================                
   | Pseudopotential Report - Date of generation 31-03-2024   |                
   ------------------------------------------------------------                
   | Element: N Ionic charge:  5.00 Level of theory: PBE      |                
   | Atomic Solver: Koelling-Harmon                           |                
   |                                                          |                
   |               Reference Electronic Structure             |                
   |         Orbital         Occupation         Energy        |                
   |            2s              2.000           -0.683        |                
   |            2p              3.000           -0.261        |                
   |                                                          |                
   |                 Pseudopotential Definition               |                
   |        Beta     l      e      Rc     scheme   norm       |                
   |          1      0   -0.683   1.100     qc      0         |                
   |          2      0    0.250   1.100     qc      0         |                
   |          3      1   -0.261   1.100     qc      0         |                
   |          4      1    0.250   1.100     qc      0         |                
   |         loc     2    0.000   1.100     pn      0         |                
   |                                                          |                
   | Augmentation charge Rinner = 0.769                       |                
   | Partial core correction Rc = 0.769                       |                
   ------------------------------------------------------------                
   | "2|1.1|12|16|19|20UU:21UU(qc=7)[]"                       |                
   ------------------------------------------------------------                
   |      Author: Chris J. Pickard, Cambridge University      |                
   ============================================================                
 
 Doing a self consistent calculation for the test configuration
 
 Atomic calculation performed for N: 1s2 2s2 2p3
 
 Converged in 55 iterations to an ae energy of -1481.742 eV
 
 ---------------------------------------
 AE eigenvalue nl 10 =      -14.13820921
 AE eigenvalue nl 20 =       -0.68290611
 AE eigenvalue nl 21 =       -0.26054797
 ---------------------------------------
 PS eigenvalue nl 20 =       -0.68291221
 PS eigenvalue nl 21 =       -0.26051708
 ---------------------------------------
 Maximum eigenvalue error:   3.09E-05
 
 Derived cutoff energies: C=  10 M=  15 F=  18 E=  23
 
 Checking for ghost states up to   1.48495 Ha
 
 No Ghost States Identified
 
 ***************************************
 
 Atomic calculation performed for O: 1s2 2s2 2p4
 
 Converged in 61 iterations to an ae energy of -2040.902 eV
 
 Identity difference: 4.10E-04
 
   ============================================================                
   | Pseudopotential Report - Date of generation 31-03-2024   |                
   ------------------------------------------------------------                
   | Element: O Ionic charge:  6.00 Level of theory: PBE      |                
   | Atomic Solver: Koelling-Harmon                           |                
   |                                                          |                
   |               Reference Electronic Structure             |                
   |         Orbital         Occupation         Energy        |                
   |            2s              2.000           -0.881        |                
   |            2p              4.000           -0.332        |                
   |                                                          |                
   |                 Pseudopotential Definition               |                
   |        Beta     l      e      Rc     scheme   norm       |                
   |          1      0   -0.881   1.100     qc      0         |                
   |          2      0    0.250   1.100     qc      0         |                
   |          3      1   -0.332   1.100     qc      0         |                
   |          4      1    0.250   1.100     qc      0         |                
   |         loc     2    0.000   1.100     pn      0         |                
   |                                                          |                
   | Augmentation charge Rinner = 0.769                       |                
   | Partial core correction Rc = 0.769                       |                
   ------------------------------------------------------------                
   | "2|1.1|14|18|21|20UU:21UU(qc=7)[]"                       |                
   ------------------------------------------------------------                
   |      Author: Chris J. Pickard, Cambridge University      |                
   ============================================================                
 
 Doing a self consistent calculation for the test configuration
 
 Atomic calculation performed for O: 1s2 2s2 2p4
 
 Converged in 61 iterations to an ae energy of -2040.902 eV
 
 ---------------------------------------
 AE eigenvalue nl 10 =      -18.91475256
 AE eigenvalue nl 20 =       -0.88057101
 AE eigenvalue nl 21 =       -0.33186952
 ---------------------------------------
 PS eigenvalue nl 20 =       -0.88059206
 PS eigenvalue nl 21 =       -0.33182157
 ---------------------------------------
 Maximum eigenvalue error:   4.80E-05
 
 Derived cutoff energies: C=  14 M=  17 F=  20 E=  22
 
 Checking for ghost states up to   1.49452 Ha
 
 No Ghost States Identified
 
 ***************************************
 
 Atomic calculation performed for Si: 1s2 2s2 2p6 3s2 3p2
 
 Converged in 54 iterations to an ae energy of -7886.857 eV
 
 Identity difference: 1.35E-04
 
   ============================================================                
   | Pseudopotential Report - Date of generation 31-03-2024   |                
   ------------------------------------------------------------                
   | Element: Si Ionic charge:  4.00 Level of theory: PBE     |                
   | Atomic Solver: Koelling-Harmon                           |                
   |                                                          |                
   |               Reference Electronic Structure             |                
   |         Orbital         Occupation         Energy        |                
   |            3s              2.000           -0.397        |                
   |            3p              2.000           -0.150        |                
   |                                                          |                
   |                 Pseudopotential Definition               |                
   |        Beta     l      e      Rc     scheme   norm       |                
   |          1      0   -0.397   1.797     qc      0         |                
   |          2      0    0.250   1.797     qc      0         |                
   |          3      1   -0.150   1.797     qc      0         |                
   |          4      1    0.250   1.797     qc      0         |                
   |          5      2    0.000   1.797     qc      0         |                
   |          6      2    0.250   1.797     qc      0         |                
   |         loc     3    0.000   1.797     pn      0         |                
   |                                                          |                
   | Augmentation charge Rinner = 1.255                       |                
   | Partial core correction Rc = 1.255                       |                
   ------------------------------------------------------------                
   | "3|1.8|3.6|5|7|30UU:31UU:32UU[]"                         |                
   ------------------------------------------------------------                
   |      Author: Chris J. Pickard, Cambridge University      |                
   ============================================================                
 
 Doing a self consistent calculation for the test configuration
 
 Atomic calculation performed for Si: 1s2 2s2 2p6 3s2 3p2
 
 Converged in 54 iterations to an ae energy of -7886.857 eV
 
 ---------------------------------------
 AE eigenvalue nl 10 =      -65.63192903
 AE eigenvalue nl 20 =       -5.12654326
 AE eigenvalue nl 21 =       -3.51173659
 AE eigenvalue nl 30 =       -0.39736430
 AE eigenvalue nl 31 =       -0.14998156
 ---------------------------------------
 PS eigenvalue nl 30 =       -0.39734922
 PS eigenvalue nl 31 =       -0.14996719
 ---------------------------------------
 Maximum eigenvalue error:   1.51E-05
 
 Derived cutoff energies: C=   1 M=   3 F=   6 E=   6
 
 Checking for ghost states up to   1.41161 Ha
 
 No Ghost States Identified
 
 ***************************************
 
 Pseudo atomic calculation performed for H 1s1
 
 Converged in 13 iterations to a total energy of -12.4790 eV
 
 Pseudo atomic calculation performed for C 2s2 2p2
 
 Converged in 17 iterations to a total energy of -148.5208 eV
 
 Pseudo atomic calculation performed for N 2s2 2p3
 
 Converged in 21 iterations to a total energy of -268.1820 eV
 
 Pseudo atomic calculation performed for O 2s2 2p4
 
 Converged in 23 iterations to a total energy of -432.6536 eV
 
 Pseudo atomic calculation performed for Si 3s2 3p2
 
 Converged in 11 iterations to a total energy of -165.0683 eV
 Calculation parallelised over 48 processes.
 Data is distributed by G-vector(48-way)

 ************************************ Title ************************************
 CASTEP calculation from BIOVIA Materials Studio 2024

 ***************************** General Parameters ******************************
  
 output verbosity                               : normal  (1)
 write checkpoint data to                       : Conf_0025.check
 type of calculation                            : geometry optimization
 stress calculation                             : off
 density difference calculation                 : off
 electron localisation func (ELF) calculation   : off
 Hirshfeld analysis                             : on
 polarisation (Berry phase) analysis            : off
 molecular orbital projected DOS                : off
 deltaSCF calculation                           : off
 unlimited duration calculation
 timing information                             : on
 memory usage estimate                          : on
 write extra output files                       : on
 write final potential to formatted file        : off
 write final density to formatted file          : off
 write BibTeX reference list                    : on
 write OTFG pseudopotential files               : on
 write electrostatic potential file             : on
 write bands file                               : on
 checkpoint writing                             : both castep_bin and check files
  
 output         length unit                     : A
 output           mass unit                     : amu
 output           time unit                     : ps
 output         charge unit                     : e
 output           spin unit                     : hbar/2
 output         energy unit                     : eV
 output          force unit                     : eV/A
 output       velocity unit                     : A/ps
 output       pressure unit                     : GPa
 output     inv_length unit                     : 1/A
 output      frequency unit                     : cm-1
 output force constant unit                     : eV/A**2
 output         volume unit                     : A**3
 output   IR intensity unit                     : (D/A)**2/amu
 output         dipole unit                     : D
 output         efield unit                     : eV/A/e
 output        entropy unit                     : J/mol/K
 output    efield chi2 unit                     : pm/V
  
 wavefunctions paging                           : none
 random number generator seed                   :   12553111
 data distribution                              : optimal for this architecture
 optimization strategy                          : balance speed and memory

 *********************** Exchange-Correlation Parameters ***********************
  
 using functional                               : Perdew Burke Ernzerhof
 relativistic treatment                         : Koelling-Harmon
 DFT+D: Semi-empirical dispersion correction    : on
 SEDC with                                      : G06 correction scheme

 ************************* Pseudopotential Parameters **************************
  
 pseudopotential representation                 : reciprocal space
 <beta|phi> representation                      : reciprocal space
 spin-orbit coupling                            : off

 **************************** Basis Set Parameters *****************************
  
 plane wave basis set cut-off                   :   600.0000   eV
 size of standard grid                          :     1.5000
 size of   fine   gmax                          :    18.8237   1/A
 largest prime factor in FFT                    :          5
 finite basis set correction                    : none

 **************************** Electronic Parameters ****************************
  
 number of  electrons                           :  74.00    
 net charge of system                           : +1.000    
 treating system as non-spin-polarized
 number of bands                                :         37

 ********************* Electronic Minimization Parameters **********************
  
 Method: Treating system as non-metallic,
         and number of  SD  steps               :          1
         and number of  CG  steps               :          4
  
 total energy / atom convergence tol.           : 0.2000E-05   eV
 eigen-energy convergence tolerance             : 0.1000E-05   eV
 max force / atom convergence tol.              : ignored
 convergence tolerance window                   :          3   cycles
 max. number of SCF cycles                      :        100
 periodic dipole correction                     : NONE

 ************************** Density Mixing Parameters **************************
  
 density-mixing scheme                          : Pulay
 max. length of mixing history                  :         20
 charge density mixing amplitude                : 0.5000    
 cut-off energy for mixing                      :  600.0       eV
 charge density mixing g-vector                 :  1.500       1/A

 *********************** Population Analysis Parameters ************************
  
 Population analysis with cutoff                :  3.000       A
 Population analysis output                     : summary and pdos components

 ********************** Geometry Optimization Parameters ***********************
  
 optimization method                            : LBFGS
 max. no. of LBFGS updates                      : unbounded
 preconditioned LBFGS is activated
 preconditioner type                            : EXP
     stabilization constant                     :     0.1000
     parameter A                                :     3.0000
     nearest neighbor distance                  : automatic
     cut-off distance                           : automatic
     parameter mu                               : automatic
 variable cell method                           : fixed basis quality
 max. number of steps                           :        300
 estimated bulk modulus                         :  500.0       GPa
 estimated <frequency>                          :  1668.       cm-1
 geom line minimiser                            : on
 with line minimiser tolerance                  :     0.4000
 total energy convergence tolerance             : 0.2000E-04   eV/atom
        max ionic |force| tolerance             : 0.5000E-01   eV/A
 max ionic |displacement| tolerance             : 0.2000E-02   A
   max |stress component| tolerance             : 0.1000       GPa
 convergence tolerance window                   :          2   steps
 backup results every                           :          5   steps
 write geom trajectory file                     : on

 *******************************************************************************
  
 
                           -------------------------------
                                      Unit Cell
                           -------------------------------
        Real Lattice(A)                      Reciprocal Lattice(1/A)
    13.4840002    -0.0000006    -0.0000006        0.465973392   0.000000000   0.000000000
     0.0000000    20.4006996    -0.0000009        0.000000013   0.307988717   0.000000000
     0.0000000     0.0000000    45.0000000        0.000000006   0.000000006   0.139626340
 
                       Lattice parameters(A)       Cell Angles
                    a =     13.484000          alpha =   90.000003
                    b =     20.400700          beta  =   90.000003
                    c =     45.000000          gamma =   90.000003
 
                       Current cell volume =         12378.736702       A**3
                                   density =             0.015698   AMU/A**3
                                           =             0.026068     g/cm^3
 
                           -------------------------------
                                     Cell Contents
                           -------------------------------
                         Total number of ions in cell =   32
                      Total number of species in cell =    5
                        Max number of any one species =   20
 
            xxxxxxxxxxxxxxxxxxxxxxxxxxxxxxxxxxxxxxxxxxxxxxxxxxxxxxxxxxxx
            x  Element    Atom        Fractional coordinates of atoms  x
            x            Number           u          v          w      x
            x----------------------------------------------------------x
            x  H            1         0.439271   0.450819   0.528600   x 
            x  H            2         0.514652   0.522995   0.525079   x 
            x  H            3         0.397993   0.483059   0.581350   x 
            x  H            4         0.472068   0.554675   0.577725   x 
            x  H            5         0.340362   0.488756   0.487159   x 
            x  H            6         0.260157   0.556711   0.492368   x 
            x  H            7         0.402859   0.635770   0.485135   x 
            x  H            8         0.359719   0.591196   0.454482   x 
            x  H            9         0.559599   0.570778   0.485529   x 
            x  H           10         0.534681   0.600711   0.449757   x 
            x  H           11         0.523711   0.383602   0.474210   x 
            x  H           12         0.651786   0.484660   0.418978   x 
            x  H           13         0.445754   0.429477   0.412210   x 
            x  H           14         0.297962   0.522013   0.538280   x 
            x  H           15         0.365590   0.588399   0.534327   x 
            x  H           16         0.548998   0.413014   0.573340   x 
            x  H           17         0.622822   0.484378   0.569679   x 
            x  H           18         0.635535   0.438668   0.621089   x 
            x  H           19         0.505004   0.445672   0.625780   x 
            x  H           20         0.579267   0.517487   0.622090   x 
            x  C            1         0.450537   0.501371   0.536567   x 
            x  C            2         0.464185   0.503400   0.570237   x 
            x  C            3         0.337865   0.540155   0.494656   x 
            x  C            4         0.401997   0.586009   0.475465   x 
            x  C            5         0.508281   0.565382   0.466632   x 
            x  C            6         0.555556   0.464657   0.580491   x 
            x  C            7         0.569568   0.466746   0.614189   x 
            x  N            1         0.357116   0.541425   0.527655   x 
            x  O            1         0.630825   0.464400   0.436882   x 
            x  O            2         0.438934   0.466388   0.424890   x 
            x  O            3         0.501184   0.427191   0.477469   x 
            x  Si           1         0.521677   0.479513   0.450567   x 
            xxxxxxxxxxxxxxxxxxxxxxxxxxxxxxxxxxxxxxxxxxxxxxxxxxxxxxxxxxxx
 
 
                         No user defined ionic velocities
 
                           -------------------------------
                                   Details of Species
                           -------------------------------
 
                               Mass of species in AMU
                                    H    1.0080000
                                    C   12.0109997
                                    N   14.0070000
                                    O   15.9989996
                                    Si   28.0849991
 
                          Electric Quadrupole Moment (Barn)
                                    H    0.0028600 Isotope  2
                                    C    0.0332700 Isotope 11
                                    N    0.0204400 Isotope 14
                                    O   -0.0255800 Isotope 17
                                    Si    1.0000000 No Isotope Defined
 
                          Files used for pseudopotentials:
                                    H 1|0.6|9|10|15|10UU(qc=8)[]
                                    C 2|1.4|11|12|14.7|20UU:21UU(qc=7)[]
                                    N 2|1.1|12|16|19|20UU:21UU(qc=7)[]
                                    O 2|1.1|14|18|21|20UU:21UU(qc=7)[]
                                    Si 3|1.8|3.6|5|7|30UU:31UU:32UU[]
 
                           -------------------------------
                              k-Points For BZ Sampling
                           -------------------------------
                       MP grid size for SCF calculation is  1  1  1
                            with an offset of   0.000  0.000  0.000
                       Number of kpoints used =             1
 
                           -------------------------------
                               Symmetry and Constraints
                           -------------------------------
 
                      Maximum deviation from symmetry =  0.00000         ANG
 
                      Number of symmetry operations   =           1
                      Number of nonlinear constraints =           3
         There are no ionic constraints specified or generated for this cell
                      Point group of crystal =     1: C1, 1, 1
                      Space group of crystal =     1: P1, P 1
 
             Set iprint > 1 for details on symmetry rotations/translations
 
                         Centre of mass is NOT constrained
 
                         Number of cell constraints= 6
                         Cell constraints are:  0 0 0 0 0 0
 
                         External pressure/stress (GPa)
                          0.00000   0.00000   0.00000
                                    0.00000   0.00000
                                              0.00000
 
                                --------------------
                                  DFT-D parameters
                                --------------------
 
                          Dispersion-correction scheme : G06       
                        Parameter s6 :   0.750000 (default)
                        Parameter d  :  20.000000 (default)
 
        xxxxxxxxxxxxxxxxxxxxxxxxxxxxxxxxxxxxxxxxxxxxxxxxxxxxxxxxxxxxxxxxxxxx
        x              Atomic DFT-D parameters                             x
        x  Species      C6            R0                                   x
        x               eV A^6        Ang                                  x
        x------------------------------------------------------------------x
        x  H             1.4510       1.0010   (default)                   x
        x  C            18.1375       1.4520   (default)                   x
        x  N            12.7481       1.3970   (default)                   x
        x  O             7.2550       1.3420   (default)                   x
        x  Si           95.6622       1.7160   (default)                   x
        xxxxxxxxxxxxxxxxxxxxxxxxxxxxxxxxxxxxxxxxxxxxxxxxxxxxxxxxxxxxxxxxxxxx
 
 
+---------------- MEMORY AND SCRATCH DISK ESTIMATES PER PROCESS --------------+
|                                                     Memory          Disk    |
| Baseline code, static data and system overhead     6531.0 MB         0.0 MB |
| BLAS internal memory storage                          0.0 MB         0.0 MB |
| Model and support data                              540.6 MB         0.0 MB |
| Electronic energy minimisation requirements          31.8 MB         0.0 MB |
| Force calculation requirements                        6.8 MB         0.0 MB |
|                                               ----------------------------- |
| Approx. total storage required per process         7103.3 MB         0.0 MB |
|                                                                             |
| Requirements will fluctuate during execution and may exceed these estimates |
+-----------------------------------------------------------------------------+
Calculating approximate eigenstates for fixed initial Hamiltonian
Cut-off for approx. calculation is  119.774 eV
Improving approx. states at cut-off of  300.000 eV
Resetting cut-off to  600.000 eV
Calculating total energy with cut-off of  600.000 eV.
------------------------------------------------------------------------ <-- SCF
SCF loop      Energy                           Energy gain       Timer   <-- SCF
                                               per atom          (sec)   <-- SCF
------------------------------------------------------------------------ <-- SCF
Initial  -2.93540688E+003                                         30.83  <-- SCF
      1  -3.20286841E+003                    8.35817274E+000      31.63  <-- SCF
      2  -3.20323147E+003                    1.13455552E-002      32.53  <-- SCF
      3  -3.19279618E+003                   -3.26102597E-001      33.55  <-- SCF
      4  -3.19161206E+003                   -3.70039853E-002      34.70  <-- SCF
      5  -3.19102536E+003                   -1.83341310E-002      35.81  <-- SCF
      6  -3.19093777E+003                   -2.73741011E-003      37.09  <-- SCF
      7  -3.19088430E+003                   -1.67095698E-003      38.11  <-- SCF
      8  -3.19087481E+003                   -2.96349962E-004      39.22  <-- SCF
      9  -3.19086575E+003                   -2.83102784E-004      40.26  <-- SCF
     10  -3.19085330E+003                   -3.89300899E-004      41.30  <-- SCF
     11  -3.19082660E+003                   -8.34316172E-004      42.34  <-- SCF
     12  -3.19076906E+003                   -1.79799672E-003      43.37  <-- SCF
     13  -3.19070692E+003                   -1.94193836E-003      44.40  <-- SCF
     14  -3.19062486E+003                   -2.56422078E-003      45.39  <-- SCF
     15  -3.19056594E+003                   -1.84127362E-003      46.39  <-- SCF
     16  -3.19052623E+003                   -1.24114823E-003      47.38  <-- SCF
     17  -3.19049405E+003                   -1.00542709E-003      48.37  <-- SCF
     18  -3.19047078E+003                   -7.27272105E-004      49.32  <-- SCF
     19  -3.19044554E+003                   -7.88855931E-004      50.30  <-- SCF
     20  -3.19041377E+003                   -9.92883905E-004      51.33  <-- SCF
     21  -3.19039302E+003                   -6.48177324E-004      52.29  <-- SCF
     22  -3.19037839E+003                   -4.57188076E-004      53.21  <-- SCF
     23  -3.19037535E+003                   -9.52384474E-005      54.26  <-- SCF
     24  -3.19037862E+003                    1.02245169E-004      55.26  <-- SCF
     25  -3.19038313E+003                    1.41117684E-004      56.16  <-- SCF
     26  -3.19038660E+003                    1.08358502E-004      57.00  <-- SCF
     27  -3.19039149E+003                    1.52845714E-004      57.82  <-- SCF
     28  -3.19039439E+003                    9.05409097E-005      58.65  <-- SCF
     29  -3.19039812E+003                    1.16603913E-004      59.45  <-- SCF
     30  -3.19040025E+003                    6.65829232E-005      60.24  <-- SCF
     31  -3.19040256E+003                    7.20260704E-005      61.04  <-- SCF
     32  -3.19040406E+003                    4.69906876E-005      61.84  <-- SCF
     33  -3.19040528E+003                    3.80225866E-005      62.63  <-- SCF
     34  -3.19040606E+003                    2.43595221E-005      63.43  <-- SCF
     35  -3.19040678E+003                    2.27408373E-005      64.22  <-- SCF
     36  -3.19040734E+003                    1.73326755E-005      65.01  <-- SCF
     37  -3.19040786E+003                    1.64365384E-005      65.87  <-- SCF
     38  -3.19040826E+003                    1.24406989E-005      66.66  <-- SCF
     39  -3.19040857E+003                    9.71020409E-006      67.46  <-- SCF
     40  -3.19040888E+003                    9.57124561E-006      68.25  <-- SCF
     41  -3.19040918E+003                    9.52791239E-006      69.05  <-- SCF
     42  -3.19040940E+003                    6.66873913E-006      69.85  <-- SCF
     43  -3.19040953E+003                    4.05157350E-006      70.64  <-- SCF
     44  -3.19040959E+003                    1.92780779E-006      71.44  <-- SCF
     45  -3.19040966E+003                    2.06711623E-006      72.23  <-- SCF
     46  -3.19040969E+003                    1.23350048E-006      73.03  <-- SCF
     47  -3.19040972E+003                    6.45542930E-007      73.82  <-- SCF
------------------------------------------------------------------------ <-- SCF
 
Final energy =  -3190.409715655     eV
(energy not corrected for finite basis set)
 
(SEDC) Total Energy Correction : -0.821936E+00 eV

Dispersion corrected final energy* =  -3191.231651272     eV

Writing analysis data to Conf_0025.castep_bin

Writing model to Conf_0025.check

WARNING - nonlinear constraints cannot be used with LBFGS algorithm
        - consider setting geom_method=DELOCALIZED
 
        => Turning nonlinear constraints OFF
 
+---------------- MEMORY AND SCRATCH DISK ESTIMATES PER PROCESS --------------+
|                                                     Memory          Disk    |
| Model and support data                              550.1 MB         0.0 MB |
| Electronic energy minimisation requirements          31.8 MB         0.0 MB |
| Geometry minimisation requirements                   34.8 MB         0.0 MB |
|                                               ----------------------------- |
| Approx. total storage required per process          616.7 MB         0.0 MB |
|                                                                             |
| Requirements will fluctuate during execution and may exceed these estimates |
+-----------------------------------------------------------------------------+
 
 
 ************************************** Forces **************************************
 *                                                                                  *
 *                           Cartesian components (eV/A)                            *
 * -------------------------------------------------------------------------------- *
 *                         x                    y                    z              *
 *                                                                                  *
 * H               1     -0.04672              0.33890             -0.11680         *
 * H               2     -0.28000             -0.02616             -0.06656         *
 * H               3      0.00376              0.03355             -0.00283         *
 * H               4     -0.01322              0.02158              0.01848         *
 * H               5      0.20407              0.12049              0.17402         *
 * H               6      0.17101             -0.06032              0.00006         *
 * H               7     -0.04851             -0.05791              0.10344         *
 * H               8      0.03412             -0.06501              0.22599         *
 * H               9      0.08707             -0.09552             -0.08374         *
 * H              10     -0.03075             -0.10544              0.08628         *
 * H              11      0.29773             -0.98477             -0.11166         *
 * H              12      0.29829              0.40446             -0.89670         *
 * H              13      0.07588             -0.76683             -0.64504         *
 * H              14     -0.47317             -0.18883              0.42436         *
 * H              15      0.06713              0.66572              0.33307         *
 * H              16     -0.04113              0.10725             -0.04340         *
 * H              17     -0.11846             -0.01157             -0.03878         *
 * H              18     -0.11874              0.03438             -0.10697         *
 * H              19      0.03960              0.02170             -0.01200         *
 * H              20     -0.03909             -0.08056              0.00121         *
 * C               1     -0.26705              0.16408              0.63463         *
 * C               2     -0.00002              0.06197             -0.01951         *
 * C               3     -0.71122              0.34484             -0.63260         *
 * C               4     -0.05297             -0.06120             -0.24552         *
 * C               5     -0.21507             -0.38523              0.00298         *
 * C               6      0.19855             -0.16109             -0.07214         *
 * C               7     -0.02736              0.05134              0.14090         *
 * N               1      1.53794             -1.23466             -0.87994         *
 * O               1      0.44668             -0.45572              0.94681         *
 * O               2     -0.74352              1.29721              0.22427         *
 * O               3     -0.11788              0.70790              0.87278         *
 * Si              1     -0.11695              0.36548             -0.21506         *
 *                                                                                  *
 ************************************************************************************
 EXP precond LBFGS => estimated nearest neighbor distance :  1.625       A
 EXP precond LBFGS => estimated cutoff distance :  3.250       A
 doing test perturbation to get energy scale for EXP preconditioner
 
                           -------------------------------
                                     Cell Contents
                           -------------------------------
 
            xxxxxxxxxxxxxxxxxxxxxxxxxxxxxxxxxxxxxxxxxxxxxxxxxxxxxxxxxxxxxxxxx
            x  Element         Atom        Fractional coordinates of atoms  x
            x                 Number           u          v          w      x
            x---------------------------------------------------------------x
            x  H                 1         0.440357   0.451597   0.528823   x
            x  H                 2         0.515818   0.523693   0.525307   x
            x  H                 3         0.399018   0.483809   0.581497   x
            x  H                 4         0.473194   0.555319   0.577878   x
            x  H                 5         0.341283   0.489500   0.487432   x
            x  H                 6         0.260900   0.557352   0.492636   x
            x  H                 7         0.403892   0.636233   0.485411   x
            x  H                 8         0.360677   0.591766   0.454788   x
            x  H                 9         0.560792   0.571391   0.485805   x
            x  H                10         0.535861   0.601260   0.450068   x
            x  H                11         0.524884   0.384398   0.474498   x
            x  H                12         0.652985   0.485408   0.419312   x
            x  H                13         0.446848   0.430267   0.412548   x
            x  H                14         0.298793   0.522713   0.538490   x
            x  H                15         0.366558   0.588975   0.534543   x
            x  H                16         0.550185   0.413809   0.573499   x
            x  H                17         0.624027   0.485126   0.569844   x
            x  H                18         0.636738   0.439454   0.621173   x
            x  H                19         0.506162   0.446453   0.625856   x
            x  H                20         0.580467   0.518193   0.622172   x
            x  C                 1         0.451637   0.502099   0.536780   x
            x  C                 2         0.465302   0.504125   0.570401   x
            x  C                 3         0.338780   0.540825   0.494921   x
            x  C                 4         0.403028   0.586590   0.475752   x
            x  C                 5         0.509442   0.566006   0.466927   x
            x  C                 6         0.556747   0.465425   0.580639   x
            x  C                 7         0.570765   0.467511   0.614284   x
            x  N                 1         0.358069   0.542092   0.527880   x
            x  O                 1         0.632029   0.465168   0.437203   x
            x  O                 2         0.440019   0.467154   0.425220   x
            x  O                 3         0.502338   0.427981   0.477754   x
            x  Si                1         0.522848   0.480266   0.450877   x
            xxxxxxxxxxxxxxxxxxxxxxxxxxxxxxxxxxxxxxxxxxxxxxxxxxxxxxxxxxxxxxxxx
 
 
------------------------------------------------------------------------ <-- SCF
SCF loop      Energy                           Energy gain       Timer   <-- SCF
                                               per atom          (sec)   <-- SCF
------------------------------------------------------------------------ <-- SCF
Initial  -3.19177892E+003                                         75.81  <-- SCF
      1  -3.19038701E+003                   -4.34972401E-002      76.61  <-- SCF
      2  -3.19041198E+003                    7.80499558E-004      77.74  <-- SCF
      3  -3.19038564E+003                   -8.23309826E-004      78.78  <-- SCF
      4  -3.19040366E+003                    5.63339381E-004      79.78  <-- SCF
      5  -3.19040382E+003                    4.74703617E-006      80.62  <-- SCF
      6  -3.19040406E+003                    7.64853511E-006      81.40  <-- SCF
      7  -3.19040413E+003                    2.19893101E-006      82.17  <-- SCF
      8  -3.19040419E+003                    1.76384297E-006      82.94  <-- SCF
      9  -3.19040422E+003                    9.91481874E-007      83.71  <-- SCF
     10  -3.19040425E+003                    1.05913462E-006      84.48  <-- SCF
     11  -3.19040428E+003                    8.93107835E-007      85.25  <-- SCF
------------------------------------------------------------------------ <-- SCF
 
Final energy =  -3190.404282663     eV
(energy not corrected for finite basis set)
 
(SEDC) Total Energy Correction : -0.822643E+00 eV

Dispersion corrected final energy* =  -3191.226925979     eV
 
 ************************************** Forces **************************************
 *                                                                                  *
 *                           Cartesian components (eV/A)                            *
 * -------------------------------------------------------------------------------- *
 *                         x                    y                    z              *
 *                                                                                  *
 * H               1     -0.06255              0.30357             -0.12699         *
 * H               2     -0.30316             -0.02503             -0.07424         *
 * H               3      0.01813              0.03124             -0.00075         *
 * H               4     -0.02162              0.06405              0.03209         *
 * H               5      0.19346              0.08273              0.16669         *
 * H               6      0.23247             -0.06998             -0.00838         *
 * H               7     -0.05625              0.01712              0.11956         *
 * H               8      0.04171             -0.05177              0.19839         *
 * H               9      0.07126             -0.09033             -0.06781         *
 * H              10     -0.04278             -0.06559              0.06399         *
 * H              11      0.30393             -0.95547             -0.11205         *
 * H              12      0.31229              0.41758             -0.91951         *
 * H              13      0.07296             -0.79875             -0.66158         *
 * H              14     -0.43479             -0.18463              0.42041         *
 * H              15      0.06435              0.74595              0.35374         *
 * H              16     -0.03871              0.08096             -0.05176         *
 * H              17     -0.12709             -0.00531             -0.05120         *
 * H              18     -0.12325              0.03677             -0.09592         *
 * H              19      0.05618              0.01771             -0.00319         *
 * H              20     -0.00875             -0.04158              0.01778         *
 * C               1     -0.28667              0.17997              0.60677         *
 * C               2     -0.01484              0.02983              0.00513         *
 * C               3     -0.75609              0.37665             -0.64365         *
 * C               4     -0.04549             -0.09549             -0.27787         *
 * C               5     -0.26340             -0.38328              0.02700         *
 * C               6      0.17561             -0.15356             -0.10607         *
 * C               7     -0.03633              0.02797              0.17387         *
 * N               1      1.62560             -1.34423             -0.84726         *
 * O               1      0.43365             -0.47171              0.97569         *
 * O               2     -0.74826              1.32343              0.23060         *
 * O               3     -0.12030              0.63640              0.89729         *
 * Si              1     -0.11126              0.36478             -0.24076         *
 *                                                                                  *
 ************************************************************************************
 EXP precond LBFGS => estimated parameter mu :  1.000       eV/A**2
 LBFGS: finished iteration     0 with enthalpy= -3.19123165E+003 eV
  
 +-----------+-----------------+-----------------+------------+-----+ <-- LBFGS
 | Parameter |      value      |    tolerance    |    units   | OK? | <-- LBFGS
 +-----------+-----------------+-----------------+------------+-----+ <-- LBFGS
 |  dE/ion   |   0.000000E+000 |   2.000000E-005 |         eV | No  | <-- LBFGS
 |  |F|max   |   2.273183E+000 |   5.000000E-002 |       eV/A | No  | <-- LBFGS
 |  |dR|max  |   8.173012E-015 |   2.000000E-003 |          A | No  | <-- LBFGS
 +-----------+-----------------+-----------------+------------+-----+ <-- LBFGS
  

================================================================================
 Starting LBFGS iteration          1 ...
================================================================================
  
 +------------+-------------+-------------+-----------------+ <-- min LBFGS
 |    Step    |   lambda    |   F.delta'  |    enthalpy     | <-- min LBFGS
 +------------+-------------+-------------+-----------------+ <-- min LBFGS
 |  previous  |    0.000000 |    1.782840 |    -3191.231651 | <-- min LBFGS
 +------------+-------------+-------------+-----------------+ <-- min LBFGS
  

--------------------------------------------------------------------------------
 LBFGS: starting iteration         1 with trial guess (lambda=  0.620054)
--------------------------------------------------------------------------------
 
                           -------------------------------
                                     Cell Contents
                           -------------------------------
 
            xxxxxxxxxxxxxxxxxxxxxxxxxxxxxxxxxxxxxxxxxxxxxxxxxxxxxxxxxxxxxxxxx
            x  Element         Atom        Fractional coordinates of atoms  x
            x                 Number           u          v          w      x
            x---------------------------------------------------------------x
            x  H                 1         0.438567   0.452289   0.528946   x
            x  H                 2         0.512219   0.522588   0.525408   x
            x  H                 3         0.397420   0.483220   0.581584   x
            x  H                 4         0.471373   0.554787   0.578003   x
            x  H                 5         0.341751   0.488583   0.487014   x
            x  H                 6         0.261636   0.555213   0.491697   x
            x  H                 7         0.401852   0.633361   0.485028   x
            x  H                 8         0.358982   0.588979   0.454626   x
            x  H                 9         0.558848   0.567931   0.485301   x
            x  H                10         0.533139   0.597752   0.449840   x
            x  H                11         0.528534   0.378777   0.476814   x
            x  H                12         0.665036   0.489676   0.416752   x
            x  H                13         0.438701   0.433114   0.409050   x
            x  H                14         0.298516   0.519027   0.538793   x
            x  H                15         0.369402   0.588860   0.534660   x
            x  H                16         0.547390   0.413582   0.573273   x
            x  H                17         0.620580   0.484303   0.569624   x
            x  H                18         0.632439   0.438987   0.620898   x
            x  H                19         0.503256   0.445925   0.625831   x
            x  H                20         0.576894   0.517202   0.622173   x
            x  C                 1         0.449309   0.501571   0.537582   x
            x  C                 2         0.463472   0.503593   0.570479   x
            x  C                 3         0.336167   0.539643   0.493463   x
            x  C                 4         0.400987   0.583782   0.474917   x
            x  C                 5         0.506176   0.562146   0.466532   x
            x  C                 6         0.554747   0.464378   0.580452   x
            x  C                 7         0.567355   0.466961   0.614364   x
            x  N                 1         0.364408   0.537181   0.526754   x
            x  O                 1         0.643027   0.466107   0.437910   x
            x  O                 2         0.428576   0.476978   0.423516   x
            x  O                 3         0.503065   0.429122   0.481147   x
            x  Si                1         0.521694   0.483857   0.450439   x
            xxxxxxxxxxxxxxxxxxxxxxxxxxxxxxxxxxxxxxxxxxxxxxxxxxxxxxxxxxxxxxxxx
 
 
------------------------------------------------------------------------ <-- SCF
SCF loop      Energy                           Energy gain       Timer   <-- SCF
                                               per atom          (sec)   <-- SCF
------------------------------------------------------------------------ <-- SCF
Initial  -3.20295178E+003                                         86.59  <-- SCF
      1  -3.18572165E+003                   -5.38441300E-001      87.40  <-- SCF
      2  -3.18917159E+003                    1.07810425E-001      88.70  <-- SCF
      3  -3.18846686E+003                   -2.20228620E-002      89.87  <-- SCF
      4  -3.18853598E+003                    2.16000381E-003      90.94  <-- SCF
      5  -3.18858206E+003                    1.44020609E-003      91.99  <-- SCF
      6  -3.18858582E+003                    1.17374567E-004      93.16  <-- SCF
      7  -3.18858720E+003                    4.30512924E-005      94.03  <-- SCF
      8  -3.18858800E+003                    2.50354045E-005      94.83  <-- SCF
      9  -3.18858883E+003                    2.59913140E-005      95.75  <-- SCF
     10  -3.18858916E+003                    1.03247491E-005      96.53  <-- SCF
     11  -3.18858931E+003                    4.70385854E-006      97.31  <-- SCF
     12  -3.18858951E+003                    6.35261868E-006      98.08  <-- SCF
     13  -3.18858967E+003                    4.93739190E-006      98.86  <-- SCF
     14  -3.18858989E+003                    6.72421130E-006      99.63  <-- SCF
     15  -3.18859008E+003                    6.14681546E-006     100.41  <-- SCF
     16  -3.18859026E+003                    5.60774440E-006     101.18  <-- SCF
     17  -3.18859041E+003                    4.59978932E-006     101.96  <-- SCF
     18  -3.18859052E+003                    3.56773220E-006     102.74  <-- SCF
     19  -3.18859065E+003                    3.92624527E-006     103.53  <-- SCF
     20  -3.18859072E+003                    2.05844929E-006     104.31  <-- SCF
     21  -3.18859079E+003                    2.42060664E-006     105.10  <-- SCF
     22  -3.18859082E+003                    9.24271509E-007     105.89  <-- SCF
     23  -3.18859087E+003                    1.37929088E-006     106.68  <-- SCF
     24  -3.18859089E+003                    8.77719564E-007     107.47  <-- SCF
     25  -3.18859091E+003                    4.38089095E-007     108.27  <-- SCF
------------------------------------------------------------------------ <-- SCF
 
Final energy =  -3188.590908958     eV
(energy not corrected for finite basis set)
 
(SEDC) Total Energy Correction : -0.825408E+00 eV

Dispersion corrected final energy* =  -3189.416316795     eV
 
 ************************************** Forces **************************************
 *                                                                                  *
 *                           Cartesian components (eV/A)                            *
 * -------------------------------------------------------------------------------- *
 *                         x                    y                    z              *
 *                                                                                  *
 * H               1      0.25540             -0.44435              0.03877         *
 * H               2      0.23807             -0.17789              0.16358         *
 * H               3     -0.05938              0.02042              0.07774         *
 * H               4     -0.00262              0.05372              0.05956         *
 * H               5     -0.01979             -0.45273             -0.37961         *
 * H               6     -1.32417              0.43755              0.28677         *
 * H               7      0.05963             -0.10485             -0.06409         *
 * H               8     -0.29512              0.13698             -0.67255         *
 * H               9     -0.14600             -0.12846             -0.19794         *
 * H              10      0.00073             -0.04102              0.07659         *
 * H              11     -1.24836              3.84693              0.58188         *
 * H              12     -1.33848             -1.76792              3.58907         *
 * H              13     -0.51460              3.46667              2.53502         *
 * H              14      1.76922              0.70322             -1.11941         *
 * H              15     -0.15708             -2.24713             -0.77976         *
 * H              16     -0.04940             -0.34263             -0.13374         *
 * H              17      0.28542              0.09974             -0.14595         *
 * H              18      0.29841             -0.19979              0.13215         *
 * H              19     -0.18014             -0.08927              0.05787         *
 * H              20      0.01125              0.23465              0.08401         *
 * C               1      1.38366             -0.74318             -0.99873         *
 * C               2     -0.12446              0.09797              0.52621         *
 * C               3      1.83950             -0.91016              0.73859         *
 * C               4      0.15461              0.36757              0.38086         *
 * C               5      0.19305              2.20961              0.93487         *
 * C               6     -0.29887              0.29564              0.44064         *
 * C               7     -0.09694             -0.07273             -0.42009         *
 * N               1     -3.88632              3.42410              1.68716         *
 * O               1     -1.25401              2.20545             -2.64730         *
 * O               2      2.21278             -3.22194             -0.93199         *
 * O               3      1.59215             -2.38251             -2.63653         *
 * Si              1      0.70188             -4.27364             -1.26365         *
 *                                                                                  *
 ************************************************************************************
  
 +------------+-------------+-------------+-----------------+ <-- min LBFGS
 |    Step    |   lambda    |   F.delta'  |    enthalpy     | <-- min LBFGS
 +------------+-------------+-------------+-----------------+ <-- min LBFGS
 |  previous  |    0.000000 |    1.782840 |    -3191.231651 | <-- min LBFGS
 | trial step |    0.620054 |   -5.387240 |    -3189.416317 | <-- min LBFGS
 +------------+-------------+-------------+-----------------+ <-- min LBFGS
  

--------------------------------------------------------------------------------
 LBFGS: improving iteration         1 with line minimization (lambda=  0.154176)
--------------------------------------------------------------------------------
 
                           -------------------------------
                                     Cell Contents
                           -------------------------------
 
            xxxxxxxxxxxxxxxxxxxxxxxxxxxxxxxxxxxxxxxxxxxxxxxxxxxxxxxxxxxxxxxxx
            x  Element         Atom        Fractional coordinates of atoms  x
            x                 Number           u          v          w      x
            x---------------------------------------------------------------x
            x  H                 1         0.439096   0.451185   0.528686   x
            x  H                 2         0.514047   0.522894   0.525161   x
            x  H                 3         0.397851   0.483099   0.581408   x
            x  H                 4         0.471895   0.554703   0.577794   x
            x  H                 5         0.340708   0.488713   0.487123   x
            x  H                 6         0.260525   0.556339   0.492202   x
            x  H                 7         0.402609   0.635171   0.485108   x
            x  H                 8         0.359536   0.590645   0.454518   x
            x  H                 9         0.559412   0.570070   0.485473   x
            x  H                10         0.534298   0.599976   0.449778   x
            x  H                11         0.524910   0.382402   0.474858   x
            x  H                12         0.655080   0.485907   0.418424   x
            x  H                13         0.444000   0.430382   0.411424   x
            x  H                14         0.298100   0.521271   0.538407   x
            x  H                15         0.366538   0.588513   0.534410   x
            x  H                16         0.548598   0.413155   0.573323   x
            x  H                17         0.622264   0.484359   0.569666   x
            x  H                18         0.634765   0.438748   0.621042   x
            x  H                19         0.504569   0.445735   0.625793   x
            x  H                20         0.578677   0.517416   0.622111   x
            x  C                 1         0.450231   0.501421   0.536819   x
            x  C                 2         0.464008   0.503448   0.570297   x
            x  C                 3         0.337442   0.540028   0.494359   x
            x  C                 4         0.401746   0.585455   0.475329   x
            x  C                 5         0.507758   0.564577   0.466607   x
            x  C                 6         0.555354   0.464588   0.580481   x
            x  C                 7         0.569018   0.466799   0.614232   x
            x  N                 1         0.358929   0.540369   0.527431   x
            x  O                 1         0.633859   0.464825   0.437138   x
            x  O                 2         0.436359   0.469021   0.424549   x
            x  O                 3         0.501651   0.427671   0.478384   x
            x  Si                1         0.521681   0.480593   0.450535   x
            xxxxxxxxxxxxxxxxxxxxxxxxxxxxxxxxxxxxxxxxxxxxxxxxxxxxxxxxxxxxxxxxx
 
 
------------------------------------------------------------------------ <-- SCF
SCF loop      Energy                           Energy gain       Timer   <-- SCF
                                               per atom          (sec)   <-- SCF
------------------------------------------------------------------------ <-- SCF
Initial  -3.21413567E+003                                        109.62  <-- SCF
      1  -3.18941470E+003                   -7.72530345E-001     110.47  <-- SCF
      2  -3.19084963E+003                    4.48415083E-002     111.63  <-- SCF
      3  -3.19039370E+003                   -1.42479975E-002     112.64  <-- SCF
      4  -3.19049857E+003                    3.27719826E-003     113.73  <-- SCF
      5  -3.19053871E+003                    1.25438564E-003     114.78  <-- SCF
      6  -3.19054047E+003                    5.51309330E-005     115.76  <-- SCF
      7  -3.19054115E+003                    2.12857019E-005     116.62  <-- SCF
      8  -3.19054145E+003                    9.40132198E-006     117.39  <-- SCF
      9  -3.19054185E+003                    1.23438094E-005     118.25  <-- SCF
     10  -3.19054206E+003                    6.69587047E-006     119.02  <-- SCF
     11  -3.19054227E+003                    6.59524208E-006     119.79  <-- SCF
     12  -3.19054260E+003                    1.01375997E-005     120.56  <-- SCF
     13  -3.19054278E+003                    5.71266319E-006     121.33  <-- SCF
     14  -3.19054311E+003                    1.02272572E-005     122.11  <-- SCF
     15  -3.19054325E+003                    4.46974277E-006     122.88  <-- SCF
     16  -3.19054344E+003                    6.06950728E-006     123.66  <-- SCF
     17  -3.19054355E+003                    3.27287709E-006     124.44  <-- SCF
     18  -3.19054372E+003                    5.33115797E-006     125.22  <-- SCF
     19  -3.19054379E+003                    2.19982128E-006     126.04  <-- SCF
     20  -3.19054389E+003                    3.19098365E-006     126.83  <-- SCF
     21  -3.19054396E+003                    1.99672441E-006     127.62  <-- SCF
     22  -3.19054401E+003                    1.56939511E-006     128.41  <-- SCF
     23  -3.19054405E+003                    1.47670934E-006     129.20  <-- SCF
     24  -3.19054407E+003                    5.24987947E-007     129.99  <-- SCF
     25  -3.19054410E+003                    1.02494804E-006     130.78  <-- SCF
------------------------------------------------------------------------ <-- SCF
 
Final energy =  -3190.544103536     eV
(energy not corrected for finite basis set)
 
(SEDC) Total Energy Correction : -0.822725E+00 eV

Dispersion corrected final energy* =  -3191.366828599     eV
 
 ************************************** Forces **************************************
 *                                                                                  *
 *                           Cartesian components (eV/A)                            *
 * -------------------------------------------------------------------------------- *
 *                         x                    y                    z              *
 *                                                                                  *
 * H               1      0.01398              0.16265             -0.07873         *
 * H               2     -0.17529             -0.05982             -0.00875         *
 * H               3     -0.01862              0.03267              0.02058         *
 * H               4     -0.01778              0.03037              0.03335         *
 * H               5      0.14092             -0.01907              0.03640         *
 * H               6     -0.16209              0.06036              0.07421         *
 * H               7     -0.03088             -0.06592              0.06377         *
 * H               8     -0.04859             -0.01562              0.01716         *
 * H               9      0.02011             -0.09579             -0.11156         *
 * H              10     -0.03072             -0.09763              0.08587         *
 * H              11     -0.25924              0.72963              0.10342         *
 * H              12     -0.31026             -0.41246              0.71321         *
 * H              13     -0.13017              0.77220              0.53642         *
 * H              14      0.21922              0.13470             -0.03993         *
 * H              15     -0.03936             -0.27100             -0.00083         *
 * H              16     -0.05259              0.00037             -0.06229         *
 * H              17     -0.02834              0.01660             -0.06108         *
 * H              18     -0.02425             -0.01940             -0.04597         *
 * H              19     -0.02474             -0.00345              0.00187         *
 * H              20     -0.03823             -0.00194              0.02348         *
 * C               1      0.01872              0.01299              0.19239         *
 * C               2     -0.04028              0.07260              0.10517         *
 * C               3     -0.12591              0.05736             -0.26319         *
 * C               4     -0.02006              0.04035             -0.09578         *
 * C               5     -0.09994              0.13540              0.16237         *
 * C               6      0.06650             -0.04586              0.05609         *
 * C               7     -0.04951              0.02165              0.00318         *
 * N               1      0.44192             -0.01920             -0.08117         *
 * O               1      0.01900              0.48155             -0.34596         *
 * O               2      0.14742             -0.31916             -0.34172         *
 * O               3      0.50895             -0.38788             -0.26189         *
 * Si              1      0.13012             -0.92724             -0.43008         *
 *                                                                                  *
 ************************************************************************************
  
 +------------+-------------+-------------+-----------------+ <-- min LBFGS
 |    Step    |   lambda    |   F.delta'  |    enthalpy     | <-- min LBFGS
 +------------+-------------+-------------+-----------------+ <-- min LBFGS
 |  previous  |    0.000000 |    1.782840 |    -3191.231651 | <-- min LBFGS
 | trial step |    0.620054 |   -5.387240 |    -3189.416317 | <-- min LBFGS
 |  line step |    0.154176 |   -0.422314 |    -3191.366829 | <-- min LBFGS
 +------------+-------------+-------------+-----------------+ <-- min LBFGS
  
 LBFGS: finished iteration     1 with enthalpy= -3.19136683E+003 eV
  
 +-----------+-----------------+-----------------+------------+-----+ <-- LBFGS
 | Parameter |      value      |    tolerance    |    units   | OK? | <-- LBFGS
 +-----------+-----------------+-----------------+------------+-----+ <-- LBFGS
 |  dE/ion   |   4.224291E-003 |   2.000000E-005 |         eV | No  | <-- LBFGS
 |  |F|max   |   1.030377E+000 |   5.000000E-002 |       eV/A | No  | <-- LBFGS
 |  |dR|max  |   6.578994E-002 |   2.000000E-003 |          A | No  | <-- LBFGS
 +-----------+-----------------+-----------------+------------+-----+ <-- LBFGS
  

================================================================================
 Starting LBFGS iteration          2 ...
================================================================================
  
 +------------+-------------+-------------+-----------------+ <-- min LBFGS
 |    Step    |   lambda    |   F.delta'  |    enthalpy     | <-- min LBFGS
 +------------+-------------+-------------+-----------------+ <-- min LBFGS
 |  previous  |    0.000000 |    0.728781 |    -3191.366829 | <-- min LBFGS
 +------------+-------------+-------------+-----------------+ <-- min LBFGS
  

--------------------------------------------------------------------------------
 LBFGS: starting iteration         2 with trial guess (lambda=  1.000000)
--------------------------------------------------------------------------------
 
                           -------------------------------
                                     Cell Contents
                           -------------------------------
 
            xxxxxxxxxxxxxxxxxxxxxxxxxxxxxxxxxxxxxxxxxxxxxxxxxxxxxxxxxxxxxxxxx
            x  Element         Atom        Fractional coordinates of atoms  x
            x                 Number           u          v          w      x
            x---------------------------------------------------------------x
            x  H                 1         0.440414   0.453569   0.528461   x
            x  H                 2         0.512196   0.522378   0.525144   x
            x  H                 3         0.397479   0.484156   0.581599   x
            x  H                 4         0.471362   0.555637   0.578059   x
            x  H                 5         0.344371   0.488030   0.486438   x
            x  H                 6         0.261229   0.555193   0.491280   x
            x  H                 7         0.401515   0.631707   0.484830   x
            x  H                 8         0.358311   0.587698   0.454272   x
            x  H                 9         0.558465   0.565517   0.484910   x
            x  H                10         0.532036   0.595120   0.450127   x
            x  H                11         0.530162   0.386608   0.475932   x
            x  H                12         0.654810   0.484388   0.421711   x
            x  H                13         0.438334   0.441700   0.412241   x
            x  H                14         0.303850   0.519775   0.538129   x
            x  H                15         0.372088   0.586922   0.534126   x
            x  H                16         0.546116   0.414096   0.572917   x
            x  H                17         0.619572   0.484958   0.569277   x
            x  H                18         0.630448   0.439361   0.620569   x
            x  H                19         0.501227   0.446437   0.625646   x
            x  H                20         0.574796   0.517779   0.622051   x
            x  C                 1         0.450936   0.501957   0.537491   x
            x  C                 2         0.463457   0.504515   0.570577   x
            x  C                 3         0.337169   0.539290   0.492619   x
            x  C                 4         0.400780   0.582627   0.474467   x
            x  C                 5         0.505271   0.560567   0.466661   x
            x  C                 6         0.554044   0.464871   0.580333   x
            x  C                 7         0.565363   0.467536   0.614152   x
            x  N                 1         0.368855   0.537143   0.526220   x
            x  O                 1         0.636811   0.465641   0.439539   x
            x  O                 2         0.430754   0.477996   0.424185   x
            x  O                 3         0.510137   0.429551   0.479435   x
            x  Si                1         0.523155   0.476756   0.449473   x
            xxxxxxxxxxxxxxxxxxxxxxxxxxxxxxxxxxxxxxxxxxxxxxxxxxxxxxxxxxxxxxxxx
 
 
------------------------------------------------------------------------ <-- SCF
SCF loop      Energy                           Energy gain       Timer   <-- SCF
                                               per atom          (sec)   <-- SCF
------------------------------------------------------------------------ <-- SCF
Initial  -3.22143515E+003                                        132.14  <-- SCF
      1  -3.18762403E+003                   -1.05659729E+000     132.94  <-- SCF
      2  -3.18986059E+003                    6.98923100E-002     134.21  <-- SCF
      3  -3.18955292E+003                   -9.61449470E-003     135.33  <-- SCF
      4  -3.18967512E+003                    3.81862597E-003     136.35  <-- SCF
      5  -3.18968345E+003                    2.60163844E-004     137.57  <-- SCF
      6  -3.18968390E+003                    1.43262035E-005     138.57  <-- SCF
      7  -3.18968338E+003                   -1.64523391E-005     139.50  <-- SCF
      8  -3.18968247E+003                   -2.83206803E-005     140.44  <-- SCF
      9  -3.18968216E+003                   -9.85118281E-006     141.34  <-- SCF
     10  -3.18968225E+003                    2.84823491E-006     142.14  <-- SCF
     11  -3.18968262E+003                    1.15733519E-005     142.97  <-- SCF
     12  -3.18968289E+003                    8.44264193E-006     143.74  <-- SCF
     13  -3.18968352E+003                    1.98295320E-005     144.54  <-- SCF
     14  -3.18968387E+003                    1.08774838E-005     145.31  <-- SCF
     15  -3.18968437E+003                    1.55555241E-005     146.09  <-- SCF
     16  -3.18968475E+003                    1.20806009E-005     146.87  <-- SCF
     17  -3.18968515E+003                    1.22339391E-005     147.65  <-- SCF
     18  -3.18968553E+003                    1.20784455E-005     148.43  <-- SCF
     19  -3.18968569E+003                    4.98473068E-006     149.21  <-- SCF
     20  -3.18968589E+003                    6.22439791E-006     149.99  <-- SCF
     21  -3.18968597E+003                    2.51039789E-006     150.78  <-- SCF
     22  -3.18968604E+003                    2.27658485E-006     151.57  <-- SCF
     23  -3.18968606E+003                    4.03305888E-007     152.36  <-- SCF
     24  -3.18968610E+003                    1.16983139E-006     153.15  <-- SCF
[...]
 * H              15     -0.00021              0.00047              0.00302         *
 * H              16      0.00084             -0.00082             -0.00078         *
 * H              17      0.00088              0.00038              0.00237         *
 * H              18     -0.00096             -0.00051              0.00489         *
 * H              19      0.00180             -0.00039              0.00050         *
 * H              20     -0.00315              0.00033              0.00226         *
 * C               1     -0.00146              0.00378              0.00291         *
 * C               2     -0.00034             -0.00208              0.00049         *
 * C               3     -0.00406              0.00053              0.00005         *
 * C               4      0.00315             -0.00274             -0.00088         *
 * C               5     -0.00144              0.00223             -0.00693         *
 * C               6     -0.00010             -0.00038              0.00051         *
 * C               7      0.00364              0.00101             -0.00498         *
 * N               1      0.00419             -0.00091             -0.00497         *
 * O               1     -0.00385             -0.00540             -0.00221         *
 * O               2     -0.01378             -0.00794             -0.01021         *
 * O               3      0.00459              0.00294             -0.00698         *
 * Si              1      0.00472             -0.00335              0.01741         *
 *                                                                                  *
 ************************************************************************************
 
 Pseudo atomic calculation performed for H 1s1
 
 Converged in 13 iterations to a total energy of -12.4790 eV
 
 Pseudo atomic calculation performed for C 2s2 2p2
 
 Converged in 17 iterations to a total energy of -148.5208 eV
 
 Pseudo atomic calculation performed for N 2s2 2p3
 
 Converged in 21 iterations to a total energy of -268.1820 eV
 
 Pseudo atomic calculation performed for O 2s2 2p4
 
 Converged in 23 iterations to a total energy of -432.6536 eV
 
 Pseudo atomic calculation performed for Si 3s2 3p2
 
 Converged in 11 iterations to a total energy of -165.0683 eV
Charge spilling parameter for spin component 1 = 1.54%
 
            Orbital Populations       
     Ion    Atom   Orbital             Charge
  -------------------------------------------
      H     1      S                    0.681
      H     2      S                    0.712
      H     3      S                    0.737
      H     4      S                    0.734
      H     5      S                    0.693
      H     6      S                    0.682
      H     7      S                    0.733
      H     8      S                    0.674
      H     9      S                    0.755
      H    10      S                    0.697
      H    11      S                    0.466
      H    12      S                    0.459
      H    13      S                    0.458
      H    14      S                    0.506
      H    15      S                    0.516
      H    16      S                    0.727
      H    17      S                    0.732
      H    18      S                    0.704
      H    19      S                    0.725
      H    20      S                    0.728
      C     1      S                    1.290
      C     1      Px                   0.921
      C     1      Py                   1.125
      C     1      Pz                   1.038
      C     2      S                    1.297
      C     2      Px                   1.118
      C     2      Py                   1.162
      C     2      Pz                   0.946
      C     3      S                    1.303
      C     3      Px                   1.170
      C     3      Py                   1.202
      C     3      Pz                   0.733
      C     4      S                    1.303
      C     4      Px                   0.994
      C     4      Py                   1.086
      C     4      Pz                   1.156
      C     5      S                    1.400
      C     5      Px                   1.040
      C     5      Py                   1.292
      C     5      Pz                   1.221
      C     6      S                    1.304
      C     6      Px                   1.045
      C     6      Py                   1.133
      C     6      Pz                   1.025
      C     7      S                    1.400
      C     7      Px                   1.215
      C     7      Py                   1.208
      C     7      Pz                   0.972
      N     1      S                    1.591
      N     1      Px                   1.347
      N     1      Py                   1.395
      N     1      Pz                   1.304
      O     1      S                    1.857
      O     1      Px                   1.738
      O     1      Py                   1.860
      O     1      Pz                   1.635
      O     2      S                    1.853
      O     2      Px                   1.818
      O     2      Py                   1.759
      O     2      Pz                   1.670
      O     3      S                    1.857
      O     3      Px                   1.888
      O     3      Py                   1.532
      O     3      Pz                   1.833
     Si     1      S                    0.726
     Si     1      Px                   0.325
     Si     1      Py                   0.450
     Si     1      Pz                   0.344
  -------------------------------------------
                           Total:      74.000
  -------------------------------------------
 
     Atomic Populations (Mulliken)
     -----------------------------
Species          Ion     s       p       d       f      Total   Charge (e)
==========================================================================
  H               1     0.681   0.000   0.000   0.000   0.681     0.319
  H               2     0.712   0.000   0.000   0.000   0.712     0.288
  H               3     0.737   0.000   0.000   0.000   0.737     0.263
  H               4     0.734   0.000   0.000   0.000   0.734     0.266
  H               5     0.693   0.000   0.000   0.000   0.693     0.307
  H               6     0.682   0.000   0.000   0.000   0.682     0.318
  H               7     0.733   0.000   0.000   0.000   0.733     0.267
  H               8     0.674   0.000   0.000   0.000   0.674     0.326
  H               9     0.755   0.000   0.000   0.000   0.755     0.245
  H              10     0.697   0.000   0.000   0.000   0.697     0.303
  H              11     0.466   0.000   0.000   0.000   0.466     0.534
  H              12     0.459   0.000   0.000   0.000   0.459     0.541
  H              13     0.458   0.000   0.000   0.000   0.458     0.542
  H              14     0.506   0.000   0.000   0.000   0.506     0.494
  H              15     0.516   0.000   0.000   0.000   0.516     0.484
  H              16     0.727   0.000   0.000   0.000   0.727     0.273
  H              17     0.732   0.000   0.000   0.000   0.732     0.268
  H              18     0.704   0.000   0.000   0.000   0.704     0.296
  H              19     0.725   0.000   0.000   0.000   0.725     0.275
  H              20     0.728   0.000   0.000   0.000   0.728     0.272
  C               1     1.290   3.084   0.000   0.000   4.375    -0.375
  C               2     1.297   3.225   0.000   0.000   4.522    -0.522
  C               3     1.303   3.105   0.000   0.000   4.408    -0.408
  C               4     1.303   3.236   0.000   0.000   4.538    -0.538
  C               5     1.400   3.553   0.000   0.000   4.953    -0.953
  C               6     1.304   3.204   0.000   0.000   4.508    -0.508
  C               7     1.400   3.395   0.000   0.000   4.795    -0.795
  N               1     1.591   4.046   0.000   0.000   5.637    -0.637
  O               1     1.857   5.233   0.000   0.000   7.090    -1.090
  O               2     1.853   5.246   0.000   0.000   7.099    -1.099
  O               3     1.857   5.253   0.000   0.000   7.110    -1.110
  Si              1     0.726   1.119   0.000   0.000   1.846     2.154
==========================================================================
 
                 Bond                   Population      Length (A)
======================================================================
              H 13 -- O 2                    0.53        0.96884
              H 12 -- O 1                    0.53        0.96915
              H 11 -- O 3                    0.53        0.97087
              H 14 -- N 1                    0.68        1.02908
              H 15 -- N 1                    0.68        1.03013
              H 2  -- C 1                    0.88        1.09455
              H 1  -- C 1                    0.86        1.09572
              H 18 -- C 7                    0.81        1.09728
              H 6  -- C 3                    0.85        1.09776
              H 5  -- C 3                    0.85        1.09865
              H 20 -- C 7                    0.81        1.09938
              H 19 -- C 7                    0.81        1.09962
              H 8  -- C 4                    0.84        1.09986
              H 9  -- C 5                    0.84        1.10070
              H 10 -- C 5                    0.82        1.10143
              H 16 -- C 6                    0.84        1.10186
              H 17 -- C 6                    0.84        1.10301
              H 4  -- C 2                    0.84        1.10415
              H 3  -- C 2                    0.85        1.10498
              H 7  -- C 4                    0.84        1.10563
               C 1 -- N 1                    0.50        1.51667
               C 1 -- C 2                    0.72        1.51897
               C 3 -- N 1                    0.49        1.51970
               C 3 -- C 4                    0.70        1.52386
               C 6 -- C 7                    0.65        1.52811
               C 2 -- C 6                    0.68        1.53435
               C 4 -- C 5                    0.65        1.53859
              H 14 -- H 15                  -0.11        1.64067
               O 1 -- Si 1                   0.51        1.64268
               O 2 -- Si 1                   0.50        1.64540
               O 3 -- Si 1                   0.48        1.65891
              H 9  -- H 10                  -0.11        1.75026
              H 7  -- H 8                   -0.11        1.75704
              H 1  -- H 2                   -0.11        1.76712
              H 16 -- H 17                  -0.12        1.76720
              H 18 -- H 19                  -0.10        1.77068
              H 18 -- H 20                  -0.10        1.77579
              H 3  -- H 4                   -0.12        1.77693
              H 19 -- H 20                  -0.10        1.77992
              H 5  -- H 6                   -0.10        1.79134
               C 5 -- Si 1                   0.61        1.87568
              H 2  -- H 9                   -0.05        2.04305
              H 14 -- C 1                   -0.13        2.06826
              H 15 -- C 1                   -0.13        2.08294
              H 14 -- C 3                   -0.13        2.08646
              H 15 -- C 3                   -0.12        2.09291
              H 6  -- N 1                   -0.12        2.09314
              H 8  -- C 3                   -0.13        2.09511
              H 1  -- N 1                   -0.11        2.10708
              H 5  -- N 1                   -0.11        2.10929
              H 2  -- N 1                   -0.11        2.11238
              H 10 -- C 4                   -0.12        2.14269
              H 8  -- C 5                   -0.13        2.14811
              H 7  -- C 3                   -0.14        2.15387
              H 6  -- C 4                   -0.14        2.15430
              H 17 -- C 2                   -0.14        2.16088
              H 16 -- C 2                   -0.13        2.16293
              H 3  -- C 1                   -0.13        2.16333
              H 4  -- C 6                   -0.12        2.16397
              H 4  -- C 1                   -0.13        2.16417
              H 3  -- C 6                   -0.12        2.16582
              H 16 -- C 7                   -0.13        2.16711
              H 17 -- C 7                   -0.13        2.16957
              H 18 -- C 6                   -0.12        2.17612
              H 2  -- C 2                   -0.12        2.17991
              H 20 -- C 6                   -0.12        2.17998
              H 19 -- C 6                   -0.12        2.18324
              H 7  -- C 5                   -0.14        2.19285
              H 1  -- C 2                   -0.11        2.19287
              H 5  -- C 4                   -0.11        2.19685
              H 9  -- C 4                   -0.11        2.20897
              H 6  -- H 14                  -0.05        2.23440
              H 11 -- Si 1                  -0.14        2.27364
              H 12 -- Si 1                  -0.13        2.27450
              H 13 -- Si 1                  -0.13        2.30428
              H 6  -- H 8                   -0.05        2.31867
              H 7  -- H 15                  -0.01        2.37892
              H 2  -- H 15                  -0.04        2.39115
              H 8  -- H 10                  -0.04        2.40089
              H 3  -- H 14                  -0.01        2.40199
              H 1  -- H 5                   -0.02        2.41446
              H 10 -- Si 1                  -0.12        2.43187
              H 1  -- H 14                  -0.03        2.43275
              H 9  -- Si 1                  -0.13        2.46563
              H 6  -- H 15                  -0.01        2.47642
              H 5  -- O 3                   -0.00        2.49074
              H 1  -- O 3                    0.00        2.49092
               C 2 -- N 1                   -0.14        2.49589
              H 5  -- H 14                  -0.01        2.49637
              H 7  -- H 10                  -0.03        2.50009
              H 16 -- H 18                  -0.03        2.50430
              H 4  -- H 17                  -0.03        2.50938
              H 17 -- H 18                  -0.03        2.51080
              H 3  -- H 16                  -0.03        2.51122
              H 4  -- H 15                  -0.00        2.51186
               C 1 -- C 6                   -0.15        2.51757
              H 2  -- H 4                   -0.04        2.52111
              H 6  -- H 7                   -0.02        2.52474
              H 17 -- H 20                  -0.03        2.52915
              H 16 -- H 19                  -0.03        2.53179
              H 7  -- H 9                   -0.04        2.53479
               C 2 -- C 7                   -0.15        2.53996
               C 4 -- N 1                   -0.13        2.54796
              H 1  -- H 3                   -0.03        2.55072
              H 2  -- H 17                  -0.01        2.56845
              H 1  -- H 16                  -0.01        2.56945
              H 5  -- H 8                   -0.01        2.57283
              H 4  -- H 20                  -0.01        2.57616
              H 3  -- H 19                  -0.01        2.58531
               C 1 -- C 3                   -0.12        2.60298
              H 14 -- C 2                   -0.04        2.61295
               C 3 -- C 5                   -0.15        2.62150
               O 1 -- O 3                   -0.08        2.63545
              H 15 -- C 4                   -0.05        2.64723
              H 15 -- C 2                   -0.03        2.69505
              H 5  -- C 1                   -0.04        2.71037
              H 7  -- N 1                   -0.04        2.71685
              H 3  -- N 1                   -0.03        2.72632
              H 17 -- C 1                   -0.04        2.73308
              H 16 -- C 1                   -0.04        2.73876
              H 4  -- N 1                   -0.02        2.74761
               O 1 -- O 2                   -0.07        2.75633
               O 2 -- O 3                   -0.07        2.75755
              H 1  -- C 3                   -0.04        2.75967
              H 4  -- C 7                   -0.04        2.76351
              H 2  -- C 5                   -0.04        2.76752
              H 3  -- C 7                   -0.04        2.76856
              H 8  -- O 2                   -0.00        2.77201
              H 11 -- O 1                   -0.01        2.77683
               C 5 -- O 2                   -0.11        2.77759
              H 1  -- C 6                   -0.03        2.80200
              H 2  -- C 6                   -0.03        2.80642
              H 20 -- C 2                   -0.04        2.80665
              H 19 -- C 2                   -0.04        2.81040
               C 5 -- O 3                   -0.10        2.81812
              H 5  -- C 5                   -0.03        2.82648
              H 2  -- C 3                   -0.01        2.84758
              H 5  -- Si 1                  -0.03        2.88311
               C 4 -- Si 1                  -0.13        2.88931
              H 2  -- H 14                   0.04        2.94676
              H 4  -- H 14                  -0.00        2.94868
              H 1  -- H 15                   0.03        2.95453
              H 12 -- O 2                   -0.01        2.95561
              H 5  -- H 15                   0.03        2.95630
               C 5 -- O 1                   -0.08        2.95678
              H 9  -- O 3                   -0.01        2.96469
              H 2  -- O 3                   -0.00        2.96533
              H 9  -- C 1                   -0.04        2.96742
======================================================================
 
 
     Hirshfeld Analysis
     ------------------
Species   Ion     Hirshfeld Charge (e)
======================================
  H        1                 0.06
  H        2                 0.06
  H        3                 0.05
  H        4                 0.05
  H        5                 0.06
  H        6                 0.07
  H        7                 0.05
  H        8                 0.06
  H        9                 0.04
  H       10                 0.06
  H       11                 0.17
  H       12                 0.18
  H       13                 0.18
  H       14                 0.18
  H       15                 0.17
  H       16                 0.05
  H       17                 0.04
  H       18                 0.05
  H       19                 0.05
  H       20                 0.04
  C        1                 0.01
  C        2                -0.06
  C        3                 0.01
  C        4                -0.05
  C        5                -0.15
  C        6                -0.05
  C        7                -0.10
  N        1                 0.03
  O        1                -0.28
  O        2                -0.27
  O        3                -0.27
  Si       1                 0.47
======================================
 

Writing analysis data to Conf_0025.castep_bin

Writing model to Conf_0025.check
 
 A BibTeX formatted list of references used in this run has been written to 
 Conf_0025.bib
 
Initialisation time =     24.81 s
Calculation time    =    834.61 s
Finalisation time   =      1.14 s
Total time          =    860.56 s
Peak Memory Use     = 7920696 kB
 
Overall parallel efficiency rating: Satisfactory (66%)
 
Data was distributed by:-
G-vector (48-way); efficiency rating: Satisfactory (67%)
High Water Mark     = 1773800 kB
