 Job started on host drago31040142.mgmt.cc.csic.es
 at Sun Mar 31 01:15:59 2024

 +-------------------------------------------------+
 |                                                 |
 |      CCC   AA    SSS  TTTTT  EEEEE  PPPP        |
 |     C     A  A  S       T    E      P   P       |
 |     C     AAAA   SS     T    EEE    PPPP        |
 |     C     A  A     S    T    E      P           |
 |      CCC  A  A  SSS     T    EEEEE  P           |
 |                                                 |
 +-------------------------------------------------+
 |                                                 |
 | Materials Studio CASTEP version 2024            |
 | Ab Initio Total Energy Program                  |
 |                                                 |
 | Authors:                                        |
 | M. Segall, M. Probert, C. Pickard, P. Hasnip,   |
 | S. Clark, K. Refson, J. R. Yates,               |
 | A. Bartok-Partay, M. Payne                      |
 |                                                 |
 | Contributors:                                   |
 | P. Lindan, P. Haynes, J. White, V. Milman,      |
 | N. Govind, M. Gibson, P. Tulip, V. Cocula,      |
 | B. Montanari, D. Quigley, M. Glover,            |
 | L. Bernasconi, A. Perlov, M. Plummer,           |
 | E. McNellis, J. Meyer, J. Gale, D. Jochym       |
 | J. Aarons, B. Walker, R. Gillen, D. Jones       |
 | T. Green, I. J. Bush, C. J. Armstrong,          |
 | E. J. Higgins, E. L. Brown, M. S. McFly,        |
 | J. Wilkins, B-C. Shih, P. J. P. Byrne,          |
 | R. J. Maurer, J. C. Womack, J. Dziedzic,        |
 | L. LeBlanc, T. K. Stenczel, J. Kermode,         |
 | S. Sturniolo, B. Shi, B. Durham, M. Evans,      |
 | M. J. Smith, A. Tamerus, Z. Hawkhead,           |
 | V. Ravindran, T. Hollins, S. A. Joyce,          |
 | R. T. Strong, A. M. Reilly                      |
 |                                                 |
 | Copyright (c) 2000 - 2023                       |
 |                                                 |
 | Please cite                                     |
 |                                                 |
 |     "First principles methods using CASTEP"     |
 |                                                 |
 |         Zeitschrift fuer Kristallographie       |
 |           220(5-6) pp. 567-570 (2005)           |
 |                                                 |
 | S. J. Clark, M. D. Segall, C. J. Pickard,       |
 | P. J. Hasnip, M. J. Probert, K. Refson,         |
 | M. C. Payne                                     |
 |                                                 |
 |       in all publications arising from          |
 |              your use of CASTEP                 |
 |                                                 |
 +-------------------------------------------------+
 |                                                 |
 |              http://www.castep.org              |
 |                                                 |
 +-------------------------------------------------+
 
 
 This version was compiled for x86_64-rhel7-intel19.0 on Oct 24 2023
 Code version:    a9f326b
 Intel(R) Math Kernel Library Version 2019.0.4 
 Fundamental constants values: CODATA 2018
 
License checkout of MS_castep successful
 
 
 Atomic calculation performed for H: 1s1
 
 Converged in 41 iterations to an ae energy of -12.488 eV
 
 Identity difference: 2.63E-05
 
   ============================================================                
   | Pseudopotential Report - Date of generation 31-03-2024   |                
   ------------------------------------------------------------                
   | Element: H Ionic charge:  1.00 Level of theory: PBE      |                
   | Atomic Solver: Koelling-Harmon                           |                
   |                                                          |                
   |               Reference Electronic Structure             |                
   |         Orbital         Occupation         Energy        |                
   |            1s              1.000           -0.239        |                
   |                                                          |                
   |                 Pseudopotential Definition               |                
   |        Beta     l      e      Rc     scheme   norm       |                
   |          1      0   -0.239   0.599     qc      0         |                
   |          2      0    0.250   0.599     qc      0         |                
   |         loc     1    0.000   0.599     pn      0         |                
   |                                                          |                
   | Augmentation charge Rinner = 0.421                       |                
   | No partial core correction                               |                
   ------------------------------------------------------------                
   | "1|0.6|9|10|15|10UU(qc=8)[]"                             |                
   ------------------------------------------------------------                
   |      Author: Chris J. Pickard, Cambridge University      |                
   ============================================================                
 
 Doing a self consistent calculation for the test configuration
 
 Atomic calculation performed for H: 1s1
 
 Converged in 41 iterations to an ae energy of -12.488 eV
 
 ---------------------------------------
 AE eigenvalue nl 10 =       -0.23860176
 ---------------------------------------
 PS eigenvalue nl 10 =       -0.23857601
 ---------------------------------------
 Maximum eigenvalue error:   2.57E-05
 
 Derived cutoff energies: C=   1 M=   6 F=  10 E=  20
 
 Checking for ghost states up to   1.51185 Ha
 
 No Ghost States Identified
 
 ***************************************
 
 Atomic calculation performed for C: 1s2 2s2 2p2
 
 Converged in 54 iterations to an ae energy of -1027.632 eV
 
 Identity difference: 2.37E-04
 
   ============================================================                
   | Pseudopotential Report - Date of generation 31-03-2024   |                
   ------------------------------------------------------------                
   | Element: C Ionic charge:  4.00 Level of theory: PBE      |                
   | Atomic Solver: Koelling-Harmon                           |                
   |                                                          |                
   |               Reference Electronic Structure             |                
   |         Orbital         Occupation         Energy        |                
   |            2s              2.000           -0.505        |                
   |            2p              2.000           -0.194        |                
   |                                                          |                
   |                 Pseudopotential Definition               |                
   |        Beta     l      e      Rc     scheme   norm       |                
   |          1      0   -0.505   1.395     qc      0         |                
   |          2      0    0.250   1.395     qc      0         |                
   |          3      1   -0.194   1.395     qc      0         |                
   |          4      1    0.250   1.395     qc      0         |                
   |         loc     2    0.000   1.395     pn      0         |                
   |                                                          |                
   | Augmentation charge Rinner = 0.983                       |                
   | Partial core correction Rc = 0.983                       |                
   ------------------------------------------------------------                
   | "2|1.4|11|12|14.7|20UU:21UU(qc=7)[]"                     |                
   ------------------------------------------------------------                
   |      Author: Chris J. Pickard, Cambridge University      |                
   ============================================================                
 
 Doing a self consistent calculation for the test configuration
 
 Atomic calculation performed for C: 1s2 2s2 2p2
 
 Converged in 54 iterations to an ae energy of -1027.632 eV
 
 ---------------------------------------
 AE eigenvalue nl 10 =      -10.04653081
 AE eigenvalue nl 20 =       -0.50533429
 AE eigenvalue nl 21 =       -0.19423807
 ---------------------------------------
 PS eigenvalue nl 20 =       -0.50531853
 PS eigenvalue nl 21 =       -0.19422214
 ---------------------------------------
 Maximum eigenvalue error:   1.59E-05
 
 Derived cutoff energies: C=   6 M=  10 F=  12 E=  16
 
 Checking for ghost states up to   1.47183 Ha
 
 No Ghost States Identified
 
 ***************************************
 
 Atomic calculation performed for N: 1s2 2s2 2p3
 
 Converged in 55 iterations to an ae energy of -1481.742 eV
 
 Identity difference: 2.27E-04
 
   ============================================================                
   | Pseudopotential Report - Date of generation 31-03-2024   |                
   ------------------------------------------------------------                
   | Element: N Ionic charge:  5.00 Level of theory: PBE      |                
   | Atomic Solver: Koelling-Harmon                           |                
   |                                                          |                
   |               Reference Electronic Structure             |                
   |         Orbital         Occupation         Energy        |                
   |            2s              2.000           -0.683        |                
   |            2p              3.000           -0.261        |                
   |                                                          |                
   |                 Pseudopotential Definition               |                
   |        Beta     l      e      Rc     scheme   norm       |                
   |          1      0   -0.683   1.100     qc      0         |                
   |          2      0    0.250   1.100     qc      0         |                
   |          3      1   -0.261   1.100     qc      0         |                
   |          4      1    0.250   1.100     qc      0         |                
   |         loc     2    0.000   1.100     pn      0         |                
   |                                                          |                
   | Augmentation charge Rinner = 0.769                       |                
   | Partial core correction Rc = 0.769                       |                
   ------------------------------------------------------------                
   | "2|1.1|12|16|19|20UU:21UU(qc=7)[]"                       |                
   ------------------------------------------------------------                
   |      Author: Chris J. Pickard, Cambridge University      |                
   ============================================================                
 
 Doing a self consistent calculation for the test configuration
 
 Atomic calculation performed for N: 1s2 2s2 2p3
 
 Converged in 55 iterations to an ae energy of -1481.742 eV
 
 ---------------------------------------
 AE eigenvalue nl 10 =      -14.13820921
 AE eigenvalue nl 20 =       -0.68290611
 AE eigenvalue nl 21 =       -0.26054797
 ---------------------------------------
 PS eigenvalue nl 20 =       -0.68291221
 PS eigenvalue nl 21 =       -0.26051708
 ---------------------------------------
 Maximum eigenvalue error:   3.09E-05
 
 Derived cutoff energies: C=  10 M=  15 F=  18 E=  23
 
 Checking for ghost states up to   1.48495 Ha
 
 No Ghost States Identified
 
 ***************************************
 
 Atomic calculation performed for O: 1s2 2s2 2p4
 
 Converged in 61 iterations to an ae energy of -2040.902 eV
 
 Identity difference: 4.10E-04
 
   ============================================================                
   | Pseudopotential Report - Date of generation 31-03-2024   |                
   ------------------------------------------------------------                
   | Element: O Ionic charge:  6.00 Level of theory: PBE      |                
   | Atomic Solver: Koelling-Harmon                           |                
   |                                                          |                
   |               Reference Electronic Structure             |                
   |         Orbital         Occupation         Energy        |                
   |            2s              2.000           -0.881        |                
   |            2p              4.000           -0.332        |                
   |                                                          |                
   |                 Pseudopotential Definition               |                
   |        Beta     l      e      Rc     scheme   norm       |                
   |          1      0   -0.881   1.100     qc      0         |                
   |          2      0    0.250   1.100     qc      0         |                
   |          3      1   -0.332   1.100     qc      0         |                
   |          4      1    0.250   1.100     qc      0         |                
   |         loc     2    0.000   1.100     pn      0         |                
   |                                                          |                
   | Augmentation charge Rinner = 0.769                       |                
   | Partial core correction Rc = 0.769                       |                
   ------------------------------------------------------------                
   | "2|1.1|14|18|21|20UU:21UU(qc=7)[]"                       |                
   ------------------------------------------------------------                
   |      Author: Chris J. Pickard, Cambridge University      |                
   ============================================================                
 
 Doing a self consistent calculation for the test configuration
 
 Atomic calculation performed for O: 1s2 2s2 2p4
 
 Converged in 61 iterations to an ae energy of -2040.902 eV
 
 ---------------------------------------
 AE eigenvalue nl 10 =      -18.91475256
 AE eigenvalue nl 20 =       -0.88057101
 AE eigenvalue nl 21 =       -0.33186952
 ---------------------------------------
 PS eigenvalue nl 20 =       -0.88059206
 PS eigenvalue nl 21 =       -0.33182157
 ---------------------------------------
 Maximum eigenvalue error:   4.80E-05
 
 Derived cutoff energies: C=  14 M=  17 F=  20 E=  22
 
 Checking for ghost states up to   1.49452 Ha
 
 No Ghost States Identified
 
 ***************************************
 
 Atomic calculation performed for Si: 1s2 2s2 2p6 3s2 3p2
 
 Converged in 54 iterations to an ae energy of -7886.857 eV
 
 Identity difference: 1.35E-04
 
   ============================================================                
   | Pseudopotential Report - Date of generation 31-03-2024   |                
   ------------------------------------------------------------                
   | Element: Si Ionic charge:  4.00 Level of theory: PBE     |                
   | Atomic Solver: Koelling-Harmon                           |                
   |                                                          |                
   |               Reference Electronic Structure             |                
   |         Orbital         Occupation         Energy        |                
   |            3s              2.000           -0.397        |                
   |            3p              2.000           -0.150        |                
   |                                                          |                
   |                 Pseudopotential Definition               |                
   |        Beta     l      e      Rc     scheme   norm       |                
   |          1      0   -0.397   1.797     qc      0         |                
   |          2      0    0.250   1.797     qc      0         |                
   |          3      1   -0.150   1.797     qc      0         |                
   |          4      1    0.250   1.797     qc      0         |                
   |          5      2    0.000   1.797     qc      0         |                
   |          6      2    0.250   1.797     qc      0         |                
   |         loc     3    0.000   1.797     pn      0         |                
   |                                                          |                
   | Augmentation charge Rinner = 1.255                       |                
   | Partial core correction Rc = 1.255                       |                
   ------------------------------------------------------------                
   | "3|1.8|3.6|5|7|30UU:31UU:32UU[]"                         |                
   ------------------------------------------------------------                
   |      Author: Chris J. Pickard, Cambridge University      |                
   ============================================================                
 
 Doing a self consistent calculation for the test configuration
 
 Atomic calculation performed for Si: 1s2 2s2 2p6 3s2 3p2
 
 Converged in 54 iterations to an ae energy of -7886.857 eV
 
 ---------------------------------------
 AE eigenvalue nl 10 =      -65.63192903
 AE eigenvalue nl 20 =       -5.12654326
 AE eigenvalue nl 21 =       -3.51173659
 AE eigenvalue nl 30 =       -0.39736430
 AE eigenvalue nl 31 =       -0.14998156
 ---------------------------------------
 PS eigenvalue nl 30 =       -0.39734922
 PS eigenvalue nl 31 =       -0.14996719
 ---------------------------------------
 Maximum eigenvalue error:   1.51E-05
 
 Derived cutoff energies: C=   1 M=   3 F=   6 E=   6
 
 Checking for ghost states up to   1.41161 Ha
 
 No Ghost States Identified
 
 ***************************************
 
 Pseudo atomic calculation performed for H 1s1
 
 Converged in 13 iterations to a total energy of -12.4790 eV
 
 Pseudo atomic calculation performed for C 2s2 2p2
 
 Converged in 17 iterations to a total energy of -148.5208 eV
 
 Pseudo atomic calculation performed for N 2s2 2p3
 
 Converged in 21 iterations to a total energy of -268.1820 eV
 
 Pseudo atomic calculation performed for O 2s2 2p4
 
 Converged in 23 iterations to a total energy of -432.6536 eV
 
 Pseudo atomic calculation performed for Si 3s2 3p2
 
 Converged in 11 iterations to a total energy of -165.0683 eV
 Calculation parallelised over 48 processes.
 Data is distributed by G-vector(48-way)

 ************************************ Title ************************************
 CASTEP calculation from BIOVIA Materials Studio 2024

 ***************************** General Parameters ******************************
  
 output verbosity                               : normal  (1)
 write checkpoint data to                       : Conf_0019.check
 type of calculation                            : geometry optimization
 stress calculation                             : off
 density difference calculation                 : off
 electron localisation func (ELF) calculation   : off
 Hirshfeld analysis                             : on
 polarisation (Berry phase) analysis            : off
 molecular orbital projected DOS                : off
 deltaSCF calculation                           : off
 unlimited duration calculation
 timing information                             : on
 memory usage estimate                          : on
 write extra output files                       : on
 write final potential to formatted file        : off
 write final density to formatted file          : off
 write BibTeX reference list                    : on
 write OTFG pseudopotential files               : on
 write electrostatic potential file             : on
 write bands file                               : on
 checkpoint writing                             : both castep_bin and check files
  
 output         length unit                     : A
 output           mass unit                     : amu
 output           time unit                     : ps
 output         charge unit                     : e
 output           spin unit                     : hbar/2
 output         energy unit                     : eV
 output          force unit                     : eV/A
 output       velocity unit                     : A/ps
 output       pressure unit                     : GPa
 output     inv_length unit                     : 1/A
 output      frequency unit                     : cm-1
 output force constant unit                     : eV/A**2
 output         volume unit                     : A**3
 output   IR intensity unit                     : (D/A)**2/amu
 output         dipole unit                     : D
 output         efield unit                     : eV/A/e
 output        entropy unit                     : J/mol/K
 output    efield chi2 unit                     : pm/V
  
 wavefunctions paging                           : none
 random number generator seed                   :   11602464
 data distribution                              : optimal for this architecture
 optimization strategy                          : balance speed and memory

 *********************** Exchange-Correlation Parameters ***********************
  
 using functional                               : Perdew Burke Ernzerhof
 relativistic treatment                         : Koelling-Harmon
 DFT+D: Semi-empirical dispersion correction    : on
 SEDC with                                      : G06 correction scheme

 ************************* Pseudopotential Parameters **************************
  
 pseudopotential representation                 : reciprocal space
 <beta|phi> representation                      : reciprocal space
 spin-orbit coupling                            : off

 **************************** Basis Set Parameters *****************************
  
 plane wave basis set cut-off                   :   600.0000   eV
 size of standard grid                          :     1.5000
 size of   fine   gmax                          :    18.8237   1/A
 largest prime factor in FFT                    :          5
 finite basis set correction                    : none

 **************************** Electronic Parameters ****************************
  
 number of  electrons                           :  74.00    
 net charge of system                           : +1.000    
 treating system as non-spin-polarized
 number of bands                                :         37

 ********************* Electronic Minimization Parameters **********************
  
 Method: Treating system as non-metallic,
         and number of  SD  steps               :          1
         and number of  CG  steps               :          4
  
 total energy / atom convergence tol.           : 0.2000E-05   eV
 eigen-energy convergence tolerance             : 0.1000E-05   eV
 max force / atom convergence tol.              : ignored
 convergence tolerance window                   :          3   cycles
 max. number of SCF cycles                      :        100
 periodic dipole correction                     : NONE

 ************************** Density Mixing Parameters **************************
  
 density-mixing scheme                          : Pulay
 max. length of mixing history                  :         20
 charge density mixing amplitude                : 0.5000    
 cut-off energy for mixing                      :  600.0       eV
 charge density mixing g-vector                 :  1.500       1/A

 *********************** Population Analysis Parameters ************************
  
 Population analysis with cutoff                :  3.000       A
 Population analysis output                     : summary and pdos components

 ********************** Geometry Optimization Parameters ***********************
  
 optimization method                            : LBFGS
 max. no. of LBFGS updates                      : unbounded
 preconditioned LBFGS is activated
 preconditioner type                            : EXP
     stabilization constant                     :     0.1000
     parameter A                                :     3.0000
     nearest neighbor distance                  : automatic
     cut-off distance                           : automatic
     parameter mu                               : automatic
 variable cell method                           : fixed basis quality
 max. number of steps                           :        300
 estimated bulk modulus                         :  500.0       GPa
 estimated <frequency>                          :  1668.       cm-1
 geom line minimiser                            : on
 with line minimiser tolerance                  :     0.4000
 total energy convergence tolerance             : 0.2000E-04   eV/atom
        max ionic |force| tolerance             : 0.5000E-01   eV/A
 max ionic |displacement| tolerance             : 0.2000E-02   A
   max |stress component| tolerance             : 0.1000       GPa
 convergence tolerance window                   :          2   steps
 backup results every                           :          5   steps
 write geom trajectory file                     : on

 *******************************************************************************
  
 
                           -------------------------------
                                      Unit Cell
                           -------------------------------
        Real Lattice(A)                      Reciprocal Lattice(1/A)
    13.4840002    -0.0000006    -0.0000006        0.465973392   0.000000000   0.000000000
     0.0000000    20.4006996    -0.0000009        0.000000013   0.307988717   0.000000000
     0.0000000     0.0000000    45.0000000        0.000000006   0.000000006   0.139626340
 
                       Lattice parameters(A)       Cell Angles
                    a =     13.484000          alpha =   90.000003
                    b =     20.400700          beta  =   90.000003
                    c =     45.000000          gamma =   90.000003
 
                       Current cell volume =         12378.736702       A**3
                                   density =             0.015698   AMU/A**3
                                           =             0.026068     g/cm^3
 
                           -------------------------------
                                     Cell Contents
                           -------------------------------
                         Total number of ions in cell =   32
                      Total number of species in cell =    5
                        Max number of any one species =   20
 
            xxxxxxxxxxxxxxxxxxxxxxxxxxxxxxxxxxxxxxxxxxxxxxxxxxxxxxxxxxxx
            x  Element    Atom        Fractional coordinates of atoms  x
            x            Number           u          v          w      x
            x----------------------------------------------------------x
            x  H            1         0.426589   0.457489   0.521807   x 
            x  H            2         0.493060   0.533669   0.521343   x 
            x  H            3         0.374002   0.479994   0.574847   x 
            x  H            4         0.439640   0.555524   0.574190   x 
            x  H            5         0.328134   0.493198   0.481326   x 
            x  H            6         0.245449   0.560261   0.484401   x 
            x  H            7         0.465534   0.596925   0.483162   x 
            x  H            8         0.360956   0.638763   0.469759   x 
            x  H            9         0.462480   0.600566   0.428001   x 
            x  H           10         0.349787   0.556770   0.427147   x 
            x  H           11         0.633489   0.468119   0.464881   x 
            x  H           12         0.524266   0.464900   0.391435   x 
            x  H           13         0.438248   0.379688   0.440085   x 
            x  H           14         0.274721   0.519816   0.531167   x 
            x  H           15         0.334904   0.589936   0.529941   x 
            x  H           16         0.533686   0.419002   0.567100   x 
            x  H           17         0.599339   0.494203   0.566169   x 
            x  H           18         0.610832   0.442728   0.616499   x 
            x  H           19         0.479377   0.442627   0.619693   x 
            x  H           20         0.545483   0.518268   0.618724   x 
            x  C            1         0.430249   0.507186   0.531406   x 
            x  C            2         0.438977   0.505154   0.565215   x 
            x  C            3         0.322404   0.544552   0.488772   x 
            x  C            4         0.394362   0.589491   0.471535   x 
            x  C            5         0.418693   0.563296   0.440034   x 
            x  C            6         0.533274   0.469814   0.575616   x 
            x  C            7         0.542724   0.468276   0.609463   x 
            x  N            1         0.333305   0.543473   0.522144   x 
            x  O            1         0.556031   0.469735   0.410107   x 
            x  O            2         0.416065   0.422465   0.445156   x 
            x  O            3         0.568226   0.483950   0.468450   x 
            x  Si           1         0.492331   0.483631   0.440086   x 
            xxxxxxxxxxxxxxxxxxxxxxxxxxxxxxxxxxxxxxxxxxxxxxxxxxxxxxxxxxxx
 
 
                         No user defined ionic velocities
 
                           -------------------------------
                                   Details of Species
                           -------------------------------
 
                               Mass of species in AMU
                                    H    1.0080000
                                    C   12.0109997
                                    N   14.0070000
                                    O   15.9989996
                                    Si   28.0849991
 
                          Electric Quadrupole Moment (Barn)
                                    H    0.0028600 Isotope  2
                                    C    0.0332700 Isotope 11
                                    N    0.0204400 Isotope 14
                                    O   -0.0255800 Isotope 17
                                    Si    1.0000000 No Isotope Defined
 
                          Files used for pseudopotentials:
                                    H 1|0.6|9|10|15|10UU(qc=8)[]
                                    C 2|1.4|11|12|14.7|20UU:21UU(qc=7)[]
                                    N 2|1.1|12|16|19|20UU:21UU(qc=7)[]
                                    O 2|1.1|14|18|21|20UU:21UU(qc=7)[]
                                    Si 3|1.8|3.6|5|7|30UU:31UU:32UU[]
 
                           -------------------------------
                              k-Points For BZ Sampling
                           -------------------------------
                       MP grid size for SCF calculation is  1  1  1
                            with an offset of   0.000  0.000  0.000
                       Number of kpoints used =             1
 
                           -------------------------------
                               Symmetry and Constraints
                           -------------------------------
 
                      Maximum deviation from symmetry =  0.00000         ANG
 
                      Number of symmetry operations   =           1
                      Number of nonlinear constraints =           3
         There are no ionic constraints specified or generated for this cell
                      Point group of crystal =     1: C1, 1, 1
                      Space group of crystal =     1: P1, P 1
 
             Set iprint > 1 for details on symmetry rotations/translations
 
                         Centre of mass is NOT constrained
 
                         Number of cell constraints= 6
                         Cell constraints are:  0 0 0 0 0 0
 
                         External pressure/stress (GPa)
                          0.00000   0.00000   0.00000
                                    0.00000   0.00000
                                              0.00000
 
                                --------------------
                                  DFT-D parameters
                                --------------------
 
                          Dispersion-correction scheme : G06       
                        Parameter s6 :   0.750000 (default)
                        Parameter d  :  20.000000 (default)
 
        xxxxxxxxxxxxxxxxxxxxxxxxxxxxxxxxxxxxxxxxxxxxxxxxxxxxxxxxxxxxxxxxxxxx
        x              Atomic DFT-D parameters                             x
        x  Species      C6            R0                                   x
        x               eV A^6        Ang                                  x
        x------------------------------------------------------------------x
        x  H             1.4510       1.0010   (default)                   x
        x  C            18.1375       1.4520   (default)                   x
        x  N            12.7481       1.3970   (default)                   x
        x  O             7.2550       1.3420   (default)                   x
        x  Si           95.6622       1.7160   (default)                   x
        xxxxxxxxxxxxxxxxxxxxxxxxxxxxxxxxxxxxxxxxxxxxxxxxxxxxxxxxxxxxxxxxxxxx
 
 
+---------------- MEMORY AND SCRATCH DISK ESTIMATES PER PROCESS --------------+
|                                                     Memory          Disk    |
| Baseline code, static data and system overhead     6530.0 MB         0.0 MB |
| BLAS internal memory storage                          0.0 MB         0.0 MB |
| Model and support data                              540.6 MB         0.0 MB |
| Electronic energy minimisation requirements          31.8 MB         0.0 MB |
| Force calculation requirements                        6.8 MB         0.0 MB |
|                                               ----------------------------- |
| Approx. total storage required per process         7102.3 MB         0.0 MB |
|                                                                             |
| Requirements will fluctuate during execution and may exceed these estimates |
+-----------------------------------------------------------------------------+
Calculating approximate eigenstates for fixed initial Hamiltonian
Cut-off for approx. calculation is  119.774 eV
Improving approx. states at cut-off of  300.000 eV
Resetting cut-off to  600.000 eV
Calculating total energy with cut-off of  600.000 eV.
------------------------------------------------------------------------ <-- SCF
SCF loop      Energy                           Energy gain       Timer   <-- SCF
                                               per atom          (sec)   <-- SCF
------------------------------------------------------------------------ <-- SCF
Initial  -2.92836068E+003                                         31.85  <-- SCF
      1  -3.20279158E+003                    8.57596565E+000      32.68  <-- SCF
      2  -3.20305910E+003                    8.36002322E-003      33.47  <-- SCF
      3  -3.19284570E+003                   -3.19168896E-001      34.68  <-- SCF
      4  -3.19165143E+003                   -3.73210077E-002      35.87  <-- SCF
      5  -3.19106379E+003                   -1.83636621E-002      36.91  <-- SCF
      6  -3.19097427E+003                   -2.79731342E-003      38.23  <-- SCF
      7  -3.19091811E+003                   -1.75524126E-003      39.27  <-- SCF
      8  -3.19090776E+003                   -3.23220656E-004      40.40  <-- SCF
      9  -3.19089777E+003                   -3.12236236E-004      41.43  <-- SCF
     10  -3.19088566E+003                   -3.78444746E-004      42.51  <-- SCF
     11  -3.19085948E+003                   -8.18030246E-004      43.59  <-- SCF
     12  -3.19080068E+003                   -1.83752742E-003      44.65  <-- SCF
     13  -3.19073932E+003                   -1.91755870E-003      45.69  <-- SCF
     14  -3.19066857E+003                   -2.21085428E-003      46.70  <-- SCF
     15  -3.19061614E+003                   -1.63871409E-003      47.71  <-- SCF
     16  -3.19056890E+003                   -1.47597175E-003      48.72  <-- SCF
     17  -3.19053448E+003                   -1.07587351E-003      49.79  <-- SCF
     18  -3.19050799E+003                   -8.27761294E-004      50.81  <-- SCF
     19  -3.19048528E+003                   -7.09761388E-004      51.81  <-- SCF
     20  -3.19045865E+003                   -8.32045477E-004      52.80  <-- SCF
     21  -3.19043547E+003                   -7.24319878E-004      53.77  <-- SCF
     22  -3.19041536E+003                   -6.28536125E-004      54.76  <-- SCF
     23  -3.19041148E+003                   -1.21175440E-004      55.82  <-- SCF
     24  -3.19041245E+003                    3.01240145E-005      56.82  <-- SCF
     25  -3.19041658E+003                    1.29316644E-004      57.67  <-- SCF
     26  -3.19042154E+003                    1.54965567E-004      58.53  <-- SCF
     27  -3.19042685E+003                    1.65934090E-004      59.43  <-- SCF
     28  -3.19043053E+003                    1.14943677E-004      60.24  <-- SCF
     29  -3.19043305E+003                    7.88098397E-005      61.05  <-- SCF
     30  -3.19043615E+003                    9.67563396E-005      61.86  <-- SCF
     31  -3.19043729E+003                    3.56028697E-005      62.67  <-- SCF
     32  -3.19044004E+003                    8.58661436E-005      63.47  <-- SCF
     33  -3.19044083E+003                    2.47638295E-005      64.30  <-- SCF
     34  -3.19044184E+003                    3.16252200E-005      65.14  <-- SCF
     35  -3.19044244E+003                    1.88023842E-005      65.95  <-- SCF
     36  -3.19044309E+003                    2.02237819E-005      66.76  <-- SCF
     37  -3.19044376E+003                    2.08406001E-005      67.56  <-- SCF
     38  -3.19044410E+003                    1.07938309E-005      68.37  <-- SCF
     39  -3.19044453E+003                    1.33312096E-005      69.18  <-- SCF
     40  -3.19044477E+003                    7.56140212E-006      69.99  <-- SCF
     41  -3.19044512E+003                    1.08663999E-005      70.79  <-- SCF
     42  -3.19044526E+003                    4.29082988E-006      71.60  <-- SCF
     43  -3.19044542E+003                    5.30298492E-006      72.41  <-- SCF
     44  -3.19044550E+003                    2.35564724E-006      73.21  <-- SCF
     45  -3.19044557E+003                    2.21549798E-006      74.02  <-- SCF
     46  -3.19044563E+003                    1.87422260E-006      74.83  <-- SCF
     47  -3.19044567E+003                    1.07506180E-006      75.63  <-- SCF
     48  -3.19044569E+003                    7.02147887E-007      76.44  <-- SCF
------------------------------------------------------------------------ <-- SCF
 
Final energy =  -3190.445687945     eV
(energy not corrected for finite basis set)
 
(SEDC) Total Energy Correction : -0.802260E+00 eV

Dispersion corrected final energy* =  -3191.247947770     eV

Writing analysis data to Conf_0019.castep_bin

Writing model to Conf_0019.check

WARNING - nonlinear constraints cannot be used with LBFGS algorithm
        - consider setting geom_method=DELOCALIZED
 
        => Turning nonlinear constraints OFF
 
+---------------- MEMORY AND SCRATCH DISK ESTIMATES PER PROCESS --------------+
|                                                     Memory          Disk    |
| Model and support data                              550.1 MB         0.0 MB |
| Electronic energy minimisation requirements          31.8 MB         0.0 MB |
| Geometry minimisation requirements                   34.8 MB         0.0 MB |
|                                               ----------------------------- |
| Approx. total storage required per process          616.7 MB         0.0 MB |
|                                                                             |
| Requirements will fluctuate during execution and may exceed these estimates |
+-----------------------------------------------------------------------------+
 
 
 ************************************** Forces **************************************
 *                                                                                  *
 *                           Cartesian components (eV/A)                            *
 * -------------------------------------------------------------------------------- *
 *                         x                    y                    z              *
 *                                                                                  *
 * H               1     -0.12959              0.29405             -0.06370         *
 * H               2     -0.28608             -0.08059             -0.06841         *
 * H               3     -0.00296              0.01982             -0.02466         *
 * H               4     -0.02659              0.00570             -0.00645         *
 * H               5      0.11243              0.05745              0.13186         *
 * H               6      0.09298             -0.02435              0.00982         *
 * H               7     -0.14161             -0.21834              0.13120         *
 * H               8      0.00797             -0.12133              0.03463         *
 * H               9     -0.04583             -0.05142              0.14395         *
 * H              10      0.05789             -0.03343              0.00407         *
 * H              11      0.93811             -0.27484             -0.10128         *
 * H              12     -0.42082             -0.07498             -0.96244         *
 * H              13      0.26732             -0.88091             -0.22428         *
 * H              14     -0.48346             -0.28434              0.34759         *
 * H              15      0.02986              0.60461              0.41463         *
 * H              16     -0.04067              0.13878             -0.05421         *
 * H              17     -0.13196             -0.02852             -0.03655         *
 * H              18     -0.12182              0.08379             -0.12789         *
 * H              19      0.05548              0.07206             -0.03841         *
 * H              20     -0.00108             -0.08409             -0.00994         *
 * C               1     -0.27814              0.23581              0.52783         *
 * C               2     -0.03132              0.03784             -0.01833         *
 * C               3     -0.53592             -0.02115             -0.73506         *
 * C               4      0.12532              0.28935              0.15791         *
 * C               5     -0.00928             -0.39266              0.25700         *
 * C               6      0.22294             -0.13261             -0.07895         *
 * C               7     -0.05707              0.04368              0.14842         *
 * N               1      1.83063             -0.91328             -0.92254         *
 * O               1      0.94318              0.27715              0.52079         *
 * O               2     -1.22503              0.52836              0.38880         *
 * O               3     -0.26699              0.68751              0.50347         *
 * Si              1     -0.44791              0.24086             -0.24886         *
 *                                                                                  *
 ************************************************************************************
 EXP precond LBFGS => estimated nearest neighbor distance :  1.624       A
 EXP precond LBFGS => estimated cutoff distance :  3.248       A
 doing test perturbation to get energy scale for EXP preconditioner
 
                           -------------------------------
                                     Cell Contents
                           -------------------------------
 
            xxxxxxxxxxxxxxxxxxxxxxxxxxxxxxxxxxxxxxxxxxxxxxxxxxxxxxxxxxxxxxxxx
            x  Element         Atom        Fractional coordinates of atoms  x
            x                 Number           u          v          w      x
            x---------------------------------------------------------------x
            x  H                 1         0.427663   0.458270   0.522080   x
            x  H                 2         0.494211   0.534372   0.521615   x
            x  H                 3         0.374992   0.480759   0.575058   x
            x  H                 4         0.440731   0.556193   0.574401   x
            x  H                 5         0.329036   0.493950   0.481636   x
            x  H                 6         0.246161   0.560921   0.484708   x
            x  H                 7         0.466657   0.597517   0.483471   x
            x  H                 8         0.361922   0.639261   0.470077   x
            x  H                 9         0.463599   0.601150   0.428345   x
            x  H                10         0.350732   0.557437   0.427492   x
            x  H                11         0.634691   0.468893   0.465204   x
            x  H                12         0.525442   0.465676   0.391793   x
            x  H                13         0.439337   0.380480   0.440423   x
            x  H                14         0.275504   0.520538   0.531429   x
            x  H                15         0.335819   0.590542   0.530205   x
            x  H                16         0.534867   0.419797   0.567320   x
            x  H                17         0.600543   0.494954   0.566391   x
            x  H                18         0.612037   0.443517   0.616653   x
            x  H                19         0.480514   0.443416   0.619843   x
            x  H                20         0.546671   0.518992   0.618875   x
            x  C                 1         0.431328   0.507923   0.531669   x
            x  C                 2         0.440067   0.505894   0.565438   x
            x  C                 3         0.323294   0.545238   0.489076   x
            x  C                 4         0.395386   0.590098   0.471853   x
            x  C                 5         0.419754   0.563952   0.440372   x
            x  C                 6         0.534455   0.470587   0.575825   x
            x  C                 7         0.543910   0.469050   0.609627   x
            x  N                 1         0.334217   0.544161   0.522416   x
            x  O                 1         0.557224   0.470508   0.410459   x
            x  O                 2         0.417123   0.423260   0.445492   x
            x  O                 3         0.569424   0.484711   0.468770   x
            x  Si                1         0.493481   0.484393   0.440425   x
            xxxxxxxxxxxxxxxxxxxxxxxxxxxxxxxxxxxxxxxxxxxxxxxxxxxxxxxxxxxxxxxxx
 
 
------------------------------------------------------------------------ <-- SCF
SCF loop      Energy                           Energy gain       Timer   <-- SCF
                                               per atom          (sec)   <-- SCF
------------------------------------------------------------------------ <-- SCF
Initial  -3.19166037E+003                                         78.47  <-- SCF
      1  -3.19042472E+003                   -3.86139306E-002      79.31  <-- SCF
      2  -3.19045306E+003                    8.85629065E-004      80.52  <-- SCF
      3  -3.19042465E+003                   -8.87819001E-004      81.54  <-- SCF
      4  -3.19044372E+003                    5.96023600E-004      82.56  <-- SCF
      5  -3.19044396E+003                    7.55459431E-006      83.41  <-- SCF
      6  -3.19044422E+003                    7.96968412E-006      84.19  <-- SCF
      7  -3.19044429E+003                    2.29866719E-006      84.97  <-- SCF
      8  -3.19044435E+003                    1.90483306E-006      85.75  <-- SCF
      9  -3.19044439E+003                    1.19161278E-006      86.54  <-- SCF
     10  -3.19044442E+003                    1.01241016E-006      87.32  <-- SCF
     11  -3.19044445E+003                    7.22531800E-007      88.10  <-- SCF
------------------------------------------------------------------------ <-- SCF
 
Final energy =  -3190.444447462     eV
(energy not corrected for finite basis set)
 
(SEDC) Total Energy Correction : -0.802843E+00 eV

Dispersion corrected final energy* =  -3191.247290551     eV
 
 ************************************** Forces **************************************
 *                                                                                  *
 *                           Cartesian components (eV/A)                            *
 * -------------------------------------------------------------------------------- *
 *                         x                    y                    z              *
 *                                                                                  *
 * H               1     -0.14139              0.25403             -0.08147         *
 * H               2     -0.30645             -0.08362             -0.06801         *
 * H               3      0.01565              0.04306             -0.02149         *
 * H               4     -0.03399              0.03707              0.01133         *
 * H               5      0.10511             -0.00130              0.10837         *
 * H               6      0.15769             -0.03278              0.01552         *
 * H               7     -0.17745             -0.22528              0.14841         *
 * H               8     -0.00482             -0.07190              0.02534         *
 * H               9     -0.04767             -0.03122              0.12956         *
 * H              10      0.08987             -0.03936              0.02326         *
 * H              11      0.92273             -0.29588             -0.09276         *
 * H              12     -0.41976             -0.08140             -0.97952         *
 * H              13      0.25882             -0.89077             -0.22446         *
 * H              14     -0.44422             -0.23934              0.35063         *
 * H              15      0.02849              0.67791              0.44094         *
 * H              16     -0.04780              0.10690             -0.06453         *
 * H              17     -0.14527             -0.02685             -0.04321         *
 * H              18     -0.13531              0.06444             -0.11526         *
 * H              19      0.06929              0.05496             -0.03495         *
 * H              20     -0.00588             -0.05737              0.00776         *
 * C               1     -0.29621              0.24243              0.51203         *
 * C               2     -0.03868             -0.01291              0.00576         *
 * C               3     -0.57869              0.00479             -0.74511         *
 * C               4      0.14585              0.26772              0.18314         *
 * C               5     -0.05283             -0.41588              0.23580         *
 * C               6      0.19931             -0.13492             -0.10496         *
 * C               7     -0.06108              0.00506              0.18417         *
 * N               1      1.96529             -0.76103             -0.96439         *
 * O               1      0.93866              0.25259              0.48415         *
 * O               2     -1.22137              0.51249              0.40623         *
 * O               3     -0.26737              0.66763              0.51392         *
 * Si              1     -0.47052              0.21072             -0.24622         *
 *                                                                                  *
 ************************************************************************************
 EXP precond LBFGS => estimated parameter mu :  1.000       eV/A**2
 LBFGS: finished iteration     0 with enthalpy= -3.19124795E+003 eV
  
 +-----------+-----------------+-----------------+------------+-----+ <-- LBFGS
 | Parameter |      value      |    tolerance    |    units   | OK? | <-- LBFGS
 +-----------+-----------------+-----------------+------------+-----+ <-- LBFGS
 |  dE/ion   |   0.000000E+000 |   2.000000E-005 |         eV | No  | <-- LBFGS
 |  |F|max   |   2.317668E+000 |   5.000000E-002 |       eV/A | No  | <-- LBFGS
 |  |dR|max  |   7.853740E-015 |   2.000000E-003 |          A | No  | <-- LBFGS
 +-----------+-----------------+-----------------+------------+-----+ <-- LBFGS
  

================================================================================
 Starting LBFGS iteration          1 ...
================================================================================
  
 +------------+-------------+-------------+-----------------+ <-- min LBFGS
 |    Step    |   lambda    |   F.delta'  |    enthalpy     | <-- min LBFGS
 +------------+-------------+-------------+-----------------+ <-- min LBFGS
 |  previous  |    0.000000 |    1.568239 |    -3191.247948 | <-- min LBFGS
 +------------+-------------+-------------+-----------------+ <-- min LBFGS
  

--------------------------------------------------------------------------------
 LBFGS: starting iteration         1 with trial guess (lambda=  0.625085)
--------------------------------------------------------------------------------
 
                           -------------------------------
                                     Cell Contents
                           -------------------------------
 
            xxxxxxxxxxxxxxxxxxxxxxxxxxxxxxxxxxxxxxxxxxxxxxxxxxxxxxxxxxxxxxxxx
            x  Element         Atom        Fractional coordinates of atoms  x
            x                 Number           u          v          w      x
            x---------------------------------------------------------------x
            x  H                 1         0.425932   0.459071   0.521878   x
            x  H                 2         0.491393   0.533416   0.521494   x
            x  H                 3         0.374018   0.480547   0.574631   x
            x  H                 4         0.439492   0.556011   0.574020   x
            x  H                 5         0.329404   0.491667   0.481294   x
            x  H                 6         0.247675   0.558008   0.484048   x
            x  H                 7         0.465162   0.594142   0.484172   x
            x  H                 8         0.361704   0.636001   0.470564   x
            x  H                 9         0.461535   0.597579   0.429589   x
            x  H                10         0.349444   0.553874   0.428313   x
            x  H                11         0.648929   0.472663   0.466405   x
            x  H                12         0.524727   0.468396   0.386793   x
            x  H                13         0.424981   0.373792   0.439972   x
            x  H                14         0.276929   0.516421   0.531488   x
            x  H                15         0.340300   0.590229   0.530434   x
            x  H                16         0.532737   0.420585   0.566533   x
            x  H                17         0.597657   0.494884   0.565648   x
            x  H                18         0.608433   0.444474   0.615709   x
            x  H                19         0.478481   0.444268   0.619141   x
            x  H                20         0.544126   0.519082   0.618240   x
            x  C                 1         0.429731   0.507753   0.532054   x
            x  C                 2         0.438781   0.505754   0.565047   x
            x  C                 3         0.322446   0.542468   0.487788   x
            x  C                 4         0.395274   0.587906   0.472401   x
            x  C                 5         0.417995   0.559862   0.441481   x
            x  C                 6         0.533208   0.470452   0.575088   x
            x  C                 7         0.541179   0.469650   0.609091   x
            x  N                 1         0.343143   0.539743   0.521184   x
            x  O                 1         0.563361   0.474318   0.408546   x
            x  O                 2         0.396669   0.422509   0.446047   x
            x  O                 3         0.574373   0.491264   0.470728   x
            x  Si                1         0.487398   0.486682   0.439840   x
            xxxxxxxxxxxxxxxxxxxxxxxxxxxxxxxxxxxxxxxxxxxxxxxxxxxxxxxxxxxxxxxxx
 
 
------------------------------------------------------------------------ <-- SCF
SCF loop      Energy                           Energy gain       Timer   <-- SCF
                                               per atom          (sec)   <-- SCF
------------------------------------------------------------------------ <-- SCF
Initial  -3.20309681E+003                                         89.44  <-- SCF
      1  -3.18489744E+003                   -5.68730235E-001      90.26  <-- SCF
      2  -3.18898860E+003                    1.27848677E-001      91.60  <-- SCF
      3  -3.18827581E+003                   -2.22747460E-002      92.77  <-- SCF
      4  -3.18835046E+003                    2.33269809E-003      93.86  <-- SCF
      5  -3.18839795E+003                    1.48422245E-003      94.93  <-- SCF
      6  -3.18840179E+003                    1.19928635E-004      96.10  <-- SCF
      7  -3.18840348E+003                    5.27419648E-005      97.04  <-- SCF
      8  -3.18840447E+003                    3.09123720E-005      97.88  <-- SCF
      9  -3.18840544E+003                    3.05821393E-005      98.78  <-- SCF
     10  -3.18840610E+003                    2.05465581E-005      99.64  <-- SCF
     11  -3.18840638E+003                    8.83884429E-006     100.42  <-- SCF
     12  -3.18840688E+003                    1.54596229E-005     101.26  <-- SCF
     13  -3.18840713E+003                    7.70830659E-006     102.05  <-- SCF
     14  -3.18840753E+003                    1.24834094E-005     102.84  <-- SCF
     15  -3.18840777E+003                    7.57908234E-006     103.63  <-- SCF
     16  -3.18840798E+003                    6.61815572E-006     104.41  <-- SCF
     17  -3.18840816E+003                    5.69458336E-006     105.20  <-- SCF
     18  -3.18840824E+003                    2.54341607E-006     106.00  <-- SCF
     19  -3.18840841E+003                    5.34314814E-006     106.79  <-- SCF
     20  -3.18840848E+003                    1.92561281E-006     107.58  <-- SCF
     21  -3.18840859E+003                    3.68876151E-006     108.38  <-- SCF
     22  -3.18840862E+003                    7.61699233E-007     109.18  <-- SCF
     23  -3.18840869E+003                    2.27465915E-006     110.03  <-- SCF
     24  -3.18840871E+003                    4.53179802E-007     110.84  <-- SCF
     25  -3.18840876E+003                    1.62747803E-006     111.63  <-- SCF
     26  -3.18840877E+003                    3.83834483E-007     112.44  <-- SCF
     27  -3.18840884E+003                    2.06849640E-006     113.24  <-- SCF
     28  -3.18840883E+003                   -3.52375276E-008     114.04  <-- SCF
     29  -3.18840889E+003                    1.59966726E-006     114.84  <-- SCF
------------------------------------------------------------------------ <-- SCF
 
Final energy =  -3188.408885879     eV
(energy not corrected for finite basis set)
 
(SEDC) Total Energy Correction : -0.814264E+00 eV

Dispersion corrected final energy* =  -3189.223149807     eV
 
 ************************************** Forces **************************************
 *                                                                                  *
 *                           Cartesian components (eV/A)                            *
 * -------------------------------------------------------------------------------- *
 *                         x                    y                    z              *
 *                                                                                  *
 * H               1      0.32648             -0.30229              0.11741         *
 * H               2      0.41488             -0.10760              0.02478         *
 * H               3     -0.07578              0.01000              0.07569         *
 * H               4     -0.03463              0.07821              0.05773         *
 * H               5      0.10668             -0.55356             -0.40625         *
 * H               6     -0.87795              0.23604              0.17683         *
 * H               7      0.22143             -0.17003              0.30889         *
 * H               8     -0.13406              0.48899             -0.14241         *
 * H               9     -0.02360             -0.13115             -0.08026         *
 * H              10      0.03292              0.04457              0.08090         *
 * H              11     -3.77393              1.31590              0.41053         *
 * H              12      1.87120              0.46141              3.90374         *
 * H              13     -1.29713              3.65585              1.00879         *
 * H              14      1.94566              1.02643             -0.92514         *
 * H              15      0.07498             -2.13324             -0.95905         *
 * H              16      0.01540             -0.39346             -0.14992         *
 * H              17      0.32772              0.18221             -0.20194         *
 * H              18      0.37670             -0.22317              0.17429         *
 * H              19     -0.25797             -0.14183              0.11601         *
 * H              20      0.00928              0.28582              0.08022         *
 * C               1      1.62914             -1.00087             -0.94315         *
 * C               2     -0.07635              0.05798              0.52847         *
 * C               3      1.39944             -0.08533              1.05277         *
 * C               4     -0.19655             -0.55542             -0.43929         *
 * C               5     -0.90397              2.37798             -0.50837         *
 * C               6     -0.36576              0.25780              0.50060         *
 * C               7     -0.01536             -0.01663             -0.48166         *
 * N               1     -5.13114              2.64028              1.88903         *
 * O               1     -3.36534             -0.05968             -1.63407         *
 * O               2      3.26789             -1.66252             -1.39386         *
 * O               3      1.61473             -1.39484             -2.61669         *
 * Si              1      2.89499             -4.18782              0.37538         *
 *                                                                                  *
 ************************************************************************************
  
 +------------+-------------+-------------+-----------------+ <-- min LBFGS
 |    Step    |   lambda    |   F.delta'  |    enthalpy     | <-- min LBFGS
 +------------+-------------+-------------+-----------------+ <-- min LBFGS
 |  previous  |    0.000000 |    1.568239 |    -3191.247948 | <-- min LBFGS
 | trial step |    0.625085 |   -4.926840 |    -3189.223150 | <-- min LBFGS
 +------------+-------------+-------------+-----------------+ <-- min LBFGS
  

--------------------------------------------------------------------------------
 LBFGS: improving iteration         1 with line minimization (lambda=  0.150927)
--------------------------------------------------------------------------------
 
                           -------------------------------
                                     Cell Contents
                           -------------------------------
 
            xxxxxxxxxxxxxxxxxxxxxxxxxxxxxxxxxxxxxxxxxxxxxxxxxxxxxxxxxxxxxxxxx
            x  Element         Atom        Fractional coordinates of atoms  x
            x                 Number           u          v          w      x
            x---------------------------------------------------------------x
            x  H                 1         0.426431   0.457871   0.521824   x
            x  H                 2         0.492658   0.533608   0.521379   x
            x  H                 3         0.374006   0.480127   0.574795   x
            x  H                 4         0.439604   0.555642   0.574149   x
            x  H                 5         0.328441   0.492828   0.481318   x
            x  H                 6         0.245986   0.559717   0.484315   x
            x  H                 7         0.465445   0.596253   0.483406   x
            x  H                 8         0.361137   0.638096   0.469953   x
            x  H                 9         0.462252   0.599845   0.428384   x
            x  H                10         0.349704   0.556071   0.427428   x
            x  H                11         0.637217   0.469216   0.465249   x
            x  H                12         0.524378   0.465744   0.390314   x
            x  H                13         0.435045   0.378264   0.440058   x
            x  H                14         0.275254   0.518996   0.531244   x
            x  H                15         0.336207   0.590007   0.530060   x
            x  H                16         0.533457   0.419384   0.566963   x
            x  H                17         0.598933   0.494367   0.566043   x
            x  H                18         0.610253   0.443150   0.616308   x
            x  H                19         0.479161   0.443023   0.619560   x
            x  H                20         0.545155   0.518464   0.618607   x
            x  C                 1         0.430124   0.507322   0.531563   x
            x  C                 2         0.438930   0.505299   0.565175   x
            x  C                 3         0.322414   0.544049   0.488535   x
            x  C                 4         0.394582   0.589108   0.471744   x
            x  C                 5         0.418524   0.562467   0.440383   x
            x  C                 6         0.533258   0.469968   0.575488   x
            x  C                 7         0.542351   0.468608   0.609373   x
            x  N                 1         0.335680   0.542572   0.521912   x
            x  O                 1         0.557801   0.470842   0.409730   x
            x  O                 2         0.411382   0.422475   0.445371   x
            x  O                 3         0.569710   0.485716   0.469000   x
            x  Si                1         0.491140   0.484368   0.440027   x
            xxxxxxxxxxxxxxxxxxxxxxxxxxxxxxxxxxxxxxxxxxxxxxxxxxxxxxxxxxxxxxxxx
 
 
------------------------------------------------------------------------ <-- SCF
SCF loop      Energy                           Energy gain       Timer   <-- SCF
                                               per atom          (sec)   <-- SCF
------------------------------------------------------------------------ <-- SCF
Initial  -3.21458492E+003                                        116.19  <-- SCF
      1  -3.18909535E+003                   -7.96549003E-001     117.04  <-- SCF
      2  -3.19088047E+003                    5.57851235E-002     118.25  <-- SCF
      3  -3.19043675E+003                   -1.38664517E-002     119.39  <-- SCF
      4  -3.19053564E+003                    3.09038774E-003     120.50  <-- SCF
      5  -3.19057257E+003                    1.15396397E-003     121.55  <-- SCF
      6  -3.19057435E+003                    5.58640388E-005     122.64  <-- SCF
      7  -3.19057493E+003                    1.81462318E-005     123.53  <-- SCF
      8  -3.19057521E+003                    8.63000120E-006     124.39  <-- SCF
      9  -3.19057566E+003                    1.40131068E-005     125.30  <-- SCF
     10  -3.19057603E+003                    1.15473470E-005     126.09  <-- SCF
     11  -3.19057637E+003                    1.06610625E-005     126.87  <-- SCF
     12  -3.19057690E+003                    1.66917531E-005     127.65  <-- SCF
     13  -3.19057720E+003                    9.19711694E-006     128.43  <-- SCF
     14  -3.19057754E+003                    1.05399471E-005     129.22  <-- SCF
     15  -3.19057782E+003                    8.98512487E-006     130.01  <-- SCF
     16  -3.19057805E+003                    7.23269942E-006     130.79  <-- SCF
     17  -3.19057820E+003                    4.52508496E-006     131.58  <-- SCF
     18  -3.19057832E+003                    3.73314501E-006     132.38  <-- SCF
     19  -3.19057843E+003                    3.58333523E-006     133.17  <-- SCF
     20  -3.19057847E+003                    1.27688431E-006     133.97  <-- SCF
     21  -3.19057854E+003                    2.11128390E-006     134.77  <-- SCF
     22  -3.19057857E+003                    7.77264805E-007     135.56  <-- SCF
     23  -3.19057862E+003                    1.63481440E-006     136.36  <-- SCF
     24  -3.19057863E+003                    4.35526792E-007     137.16  <-- SCF
     25  -3.19057865E+003                    6.85176043E-007     137.96  <-- SCF
------------------------------------------------------------------------ <-- SCF
 
Final energy =  -3190.578654386     eV
(energy not corrected for finite basis set)
 
(SEDC) Total Energy Correction : -0.805374E+00 eV

Dispersion corrected final energy* =  -3191.384028742     eV
 
 ************************************** Forces **************************************
 *                                                                                  *
 *                           Cartesian components (eV/A)                            *
 * -------------------------------------------------------------------------------- *
 *                         x                    y                    z              *
 *                                                                                  *
 * H               1     -0.03493              0.17435             -0.02428         *
 * H               2     -0.16362             -0.08163             -0.04847         *
 * H               3     -0.02499              0.02960              0.00017         *
 * H               4     -0.03395              0.02658              0.00947         *
 * H               5      0.10343             -0.07345              0.00134         *
 * H               6     -0.13394              0.01555              0.04747         *
 * H               7     -0.06088             -0.20794              0.17514         *
 * H               8     -0.02967              0.02148             -0.00777         *
 * H               9     -0.04926             -0.08456              0.08274         *
 * H              10      0.04693             -0.01472              0.02215         *
 * H              11     -0.70024              0.24956              0.07133         *
 * H              12      0.40501              0.13189              0.82513         *
 * H              13     -0.21316              0.73737              0.19344         *
 * H              14      0.26198              0.13955             -0.03873         *
 * H              15      0.01486             -0.24926              0.01653         *
 * H              16     -0.03236              0.01751             -0.07692         *
 * H              17     -0.03029              0.02385             -0.07723         *
 * H              18     -0.01110              0.01825             -0.06007         *
 * H              19     -0.02399              0.02627             -0.00431         *
 * H              20     -0.00391              0.00712              0.01106         *
 * C               1      0.01141              0.04006              0.12038         *
 * C               2     -0.04914              0.04791              0.09760         *
 * C               3     -0.09056             -0.02163             -0.30568         *
 * C               4      0.03656              0.08360              0.01477         *
 * C               5     -0.15795              0.16018              0.05831         *
 * C               6      0.07556             -0.03343              0.05632         *
 * C               7     -0.05031              0.03231             -0.00309         *
 * N               1      0.42560             -0.13523             -0.02901         *
 * O               1     -0.50672              0.11396             -0.35539         *
 * O               2      0.21186             -0.18307             -0.21697         *
 * O               3      0.38880             -0.00632             -0.61289         *
 * Si              1      0.41897             -1.00570              0.05746         *
 *                                                                                  *
 ************************************************************************************
  
 +------------+-------------+-------------+-----------------+ <-- min LBFGS
 |    Step    |   lambda    |   F.delta'  |    enthalpy     | <-- min LBFGS
 +------------+-------------+-------------+-----------------+ <-- min LBFGS
 |  previous  |    0.000000 |    1.568239 |    -3191.247948 | <-- min LBFGS
 | trial step |    0.625085 |   -4.926840 |    -3189.223150 | <-- min LBFGS
 |  line step |    0.150927 |   -0.402323 |    -3191.384029 | <-- min LBFGS
 +------------+-------------+-------------+-----------------+ <-- min LBFGS
  
 LBFGS: finished iteration     1 with enthalpy= -3.19138403E+003 eV
  
 +-----------+-----------------+-----------------+------------+-----+ <-- LBFGS
 | Parameter |      value      |    tolerance    |    units   | OK? | <-- LBFGS
 +-----------+-----------------+-----------------+------------+-----+ <-- LBFGS
 |  dE/ion   |   4.252530E-003 |   2.000000E-005 |         eV | No  | <-- LBFGS
 |  |F|max   |   1.090995E+000 |   5.000000E-002 |       eV/A | No  | <-- LBFGS
 |  |dR|max  |   6.388501E-002 |   2.000000E-003 |          A | No  | <-- LBFGS
 +-----------+-----------------+-----------------+------------+-----+ <-- LBFGS
  

================================================================================
 Starting LBFGS iteration          2 ...
================================================================================
  
 +------------+-------------+-------------+-----------------+ <-- min LBFGS
 |    Step    |   lambda    |   F.delta'  |    enthalpy     | <-- min LBFGS
 +------------+-------------+-------------+-----------------+ <-- min LBFGS
 |  previous  |    0.000000 |    0.687115 |    -3191.384029 | <-- min LBFGS
 +------------+-------------+-------------+-----------------+ <-- min LBFGS
  

--------------------------------------------------------------------------------
 LBFGS: starting iteration         2 with trial guess (lambda=  1.000000)
--------------------------------------------------------------------------------
 
                           -------------------------------
                                     Cell Contents
                           -------------------------------
 
            xxxxxxxxxxxxxxxxxxxxxxxxxxxxxxxxxxxxxxxxxxxxxxxxxxxxxxxxxxxxxxxxx
            x  Element         Atom        Fractional coordinates of atoms  x
            x                 Number           u          v          w      x
            x---------------------------------------------------------------x
            x  H                 1         0.427159   0.459557   0.521445   x
            x  H                 2         0.491340   0.532335   0.521037   x
            x  H                 3         0.374343   0.481015   0.574312   x
            x  H                 4         0.439674   0.556391   0.573728   x
            x  H                 5         0.331945   0.489661   0.480960   x
            x  H                 6         0.248067   0.556279   0.483826   x
            x  H                 7         0.464996   0.590992   0.484727   x
            x  H                 8         0.361701   0.634144   0.470748   x
            x  H                 9         0.460400   0.595088   0.430460   x
            x  H                10         0.349485   0.551974   0.428916   x
            x  H                11         0.633730   0.475427   0.463796   x
            x  H                12         0.527933   0.471187   0.393688   x
            x  H                13         0.423937   0.384864   0.441335   x
            x  H                14         0.282986   0.515801   0.530981   x
            x  H                15         0.343907   0.587129   0.530092   x
            x  H                16         0.532337   0.421282   0.565746   x
            x  H                17         0.597314   0.495660   0.564858   x
            x  H                18         0.607587   0.445597   0.614870   x
            x  H                19         0.477447   0.445418   0.618481   x
            x  H                20         0.543325   0.520171   0.617620   x
            x  C                 1         0.431283   0.507331   0.531812   x
            x  C                 2         0.439032   0.506165   0.564837   x
            x  C                 3         0.323930   0.540577   0.487164   x
            x  C                 4         0.395656   0.585969   0.472609   x
            x  C                 5         0.416862   0.558417   0.442099   x
            x  C                 6         0.533256   0.471062   0.574560   x
            x  C                 7         0.540221   0.470756   0.608403   x
            x  N                 1         0.347971   0.537962   0.520843   x
            x  O                 1         0.559055   0.476145   0.411742   x
            x  O                 2         0.399421   0.426875   0.446331   x
            x  O                 3         0.569784   0.491795   0.467089   x
            x  Si                1         0.490532   0.480444   0.440547   x
            xxxxxxxxxxxxxxxxxxxxxxxxxxxxxxxxxxxxxxxxxxxxxxxxxxxxxxxxxxxxxxxxx
 
 
------------------------------------------------------------------------ <-- SCF
SCF loop      Energy                           Energy gain       Timer   <-- SCF
                                               per atom          (sec)   <-- SCF
------------------------------------------------------------------------ <-- SCF
Initial  -3.22771946E+003                                        139.48  <-- SCF
      1  -3.18720019E+003                   -1.26622707E+000     140.58  <-- SCF
      2  -3.18976387E+003                    8.01149234E-002     141.84  <-- SCF
      3  -3.18935854E+003                   -1.26665007E-002     143.00  <-- SCF
      4  -3.18949582E+003                    4.28989203E-003     144.02  <-- SCF
      5  -3.18950973E+003                    4.34564905E-004     145.25  <-- SCF
      6  -3.18951100E+003                    3.97355761E-005     146.27  <-- SCF
      7  -3.18951085E+003                   -4.47808542E-006     147.20  <-- SCF
      8  -3.18951038E+003                   -1.49782863E-005     148.15  <-- SCF
      9  -3.18951015E+003                   -6.90847095E-006     149.08  <-- SCF
     10  -3.18951031E+003                    4.93484425E-006     149.89  <-- SCF
     11  -3.18951094E+003                    1.97766303E-005     150.72  <-- SCF
     12  -3.18951133E+003                    1.21265303E-005     151.53  <-- SCF
     13  -3.18951209E+003                    2.36383794E-005     152.32  <-- SCF
     14  -3.18951248E+003                    1.22409944E-005     153.11  <-- SCF
     15  -3.18951299E+003                    1.58826198E-005     153.89  <-- SCF
     16  -3.18951333E+003                    1.04990669E-005     154.71  <-- SCF
     17  -3.18951375E+003                    1.33045048E-005     155.50  <-- SCF
     18  -3.18951418E+003                    1.33745755E-005     156.29  <-- SCF
     19  -3.18951447E+003                    9.05626640E-006     157.09  <-- SCF
[...]
 * H              19      0.00430              0.00240             -0.00361         *
 * H              20     -0.00091             -0.00296              0.00001         *
 * C               1     -0.00701              0.01005             -0.00168         *
 * C               2      0.01109             -0.00354              0.00641         *
 * C               3     -0.00377              0.00125              0.01259         *
 * C               4     -0.00763             -0.00701             -0.00671         *
 * C               5      0.00834              0.00462              0.00463         *
 * C               6      0.00432             -0.00177             -0.00433         *
 * C               7     -0.00165             -0.00361              0.00422         *
 * N               1     -0.00115              0.00940             -0.00843         *
 * O               1     -0.00134              0.00222              0.00138         *
 * O               2     -0.00698              0.00912              0.00388         *
 * O               3      0.00124              0.00227              0.00361         *
 * Si              1      0.00167             -0.00527             -0.00408         *
 *                                                                                  *
 ************************************************************************************
 
 Pseudo atomic calculation performed for H 1s1
 
 Converged in 13 iterations to a total energy of -12.4790 eV
 
 Pseudo atomic calculation performed for C 2s2 2p2
 
 Converged in 17 iterations to a total energy of -148.5208 eV
 
 Pseudo atomic calculation performed for N 2s2 2p3
 
 Converged in 21 iterations to a total energy of -268.1820 eV
 
 Pseudo atomic calculation performed for O 2s2 2p4
 
 Converged in 23 iterations to a total energy of -432.6536 eV
 
 Pseudo atomic calculation performed for Si 3s2 3p2
 
 Converged in 11 iterations to a total energy of -165.0683 eV
Charge spilling parameter for spin component 1 = 1.54%
 
            Orbital Populations       
     Ion    Atom   Orbital             Charge
  -------------------------------------------
      H     1      S                    0.687
      H     2      S                    0.695
      H     3      S                    0.733
      H     4      S                    0.735
      H     5      S                    0.699
      H     6      S                    0.684
      H     7      S                    0.742
      H     8      S                    0.710
      H     9      S                    0.694
      H    10      S                    0.714
      H    11      S                    0.463
      H    12      S                    0.452
      H    13      S                    0.466
      H    14      S                    0.504
      H    15      S                    0.512
      H    16      S                    0.727
      H    17      S                    0.731
      H    18      S                    0.704
      H    19      S                    0.725
      H    20      S                    0.727
      C     1      S                    1.294
      C     1      Px                   0.913
      C     1      Py                   1.129
      C     1      Pz                   1.052
      C     2      S                    1.296
      C     2      Px                   1.106
      C     2      Py                   1.174
      C     2      Pz                   0.946
      C     3      S                    1.303
      C     3      Px                   1.180
      C     3      Py                   1.200
      C     3      Pz                   0.723
      C     4      S                    1.296
      C     4      Px                   1.093
      C     4      Py                   1.115
      C     4      Pz                   1.015
      C     5      S                    1.409
      C     5      Px                   1.254
      C     5      Py                   1.279
      C     5      Pz                   1.025
      C     6      S                    1.304
      C     6      Px                   1.023
      C     6      Py                   1.152
      C     6      Pz                   1.030
      C     7      S                    1.400
      C     7      Px                   1.218
      C     7      Py                   1.206
      C     7      Pz                   0.972
      N     1      S                    1.590
      N     1      Px                   1.347
      N     1      Py                   1.402
      N     1      Pz                   1.302
      O     1      S                    1.852
      O     1      Px                   1.828
      O     1      Py                   1.885
      O     1      Pz                   1.528
      O     2      S                    1.857
      O     2      Px                   1.839
      O     2      Py                   1.513
      O     2      Pz                   1.887
      O     3      S                    1.855
      O     3      Px                   1.538
      O     3      Py                   1.882
      O     3      Pz                   1.841
     Si     1      S                    0.735
     Si     1      Px                   0.331
     Si     1      Py                   0.460
     Si     1      Pz                   0.320
  -------------------------------------------
                           Total:      74.000
  -------------------------------------------
 
     Atomic Populations (Mulliken)
     -----------------------------
Species          Ion     s       p       d       f      Total   Charge (e)
==========================================================================
  H               1     0.687   0.000   0.000   0.000   0.687     0.313
  H               2     0.695   0.000   0.000   0.000   0.695     0.305
  H               3     0.733   0.000   0.000   0.000   0.733     0.267
  H               4     0.735   0.000   0.000   0.000   0.735     0.265
  H               5     0.699   0.000   0.000   0.000   0.699     0.301
  H               6     0.684   0.000   0.000   0.000   0.684     0.316
  H               7     0.742   0.000   0.000   0.000   0.742     0.258
  H               8     0.710   0.000   0.000   0.000   0.710     0.290
  H               9     0.694   0.000   0.000   0.000   0.694     0.306
  H              10     0.714   0.000   0.000   0.000   0.714     0.286
  H              11     0.463   0.000   0.000   0.000   0.463     0.537
  H              12     0.452   0.000   0.000   0.000   0.452     0.548
  H              13     0.466   0.000   0.000   0.000   0.466     0.534
  H              14     0.504   0.000   0.000   0.000   0.504     0.496
  H              15     0.512   0.000   0.000   0.000   0.512     0.488
  H              16     0.727   0.000   0.000   0.000   0.727     0.273
  H              17     0.731   0.000   0.000   0.000   0.731     0.269
  H              18     0.704   0.000   0.000   0.000   0.704     0.296
  H              19     0.725   0.000   0.000   0.000   0.725     0.275
  H              20     0.727   0.000   0.000   0.000   0.727     0.273
  C               1     1.294   3.094   0.000   0.000   4.388    -0.388
  C               2     1.296   3.225   0.000   0.000   4.521    -0.521
  C               3     1.303   3.102   0.000   0.000   4.404    -0.404
  C               4     1.296   3.223   0.000   0.000   4.518    -0.518
  C               5     1.409   3.558   0.000   0.000   4.967    -0.967
  C               6     1.304   3.205   0.000   0.000   4.509    -0.509
  C               7     1.400   3.396   0.000   0.000   4.796    -0.796
  N               1     1.590   4.050   0.000   0.000   5.640    -0.640
  O               1     1.852   5.241   0.000   0.000   7.094    -1.094
  O               2     1.857   5.239   0.000   0.000   7.096    -1.096
  O               3     1.855   5.261   0.000   0.000   7.116    -1.116
  Si              1     0.735   1.112   0.000   0.000   1.846     2.154
==========================================================================
 
                 Bond                   Population      Length (A)
======================================================================
              H 12 -- O 1                    0.53        0.96852
              H 11 -- O 3                    0.53        0.96932
              H 13 -- O 2                    0.53        0.97052
              H 14 -- N 1                    0.67        1.02889
              H 15 -- N 1                    0.67        1.03063
              H 2  -- C 1                    0.87        1.09622
              H 18 -- C 7                    0.81        1.09674
              H 1  -- C 1                    0.85        1.09792
              H 5  -- C 3                    0.86        1.09823
              H 6  -- C 3                    0.84        1.09863
              H 19 -- C 7                    0.81        1.09884
              H 20 -- C 7                    0.81        1.09934
              H 7  -- C 4                    0.87        1.09987
              H 8  -- C 4                    0.85        1.10057
              H 9  -- C 5                    0.82        1.10127
              H 10 -- C 5                    0.81        1.10148
              H 16 -- C 6                    0.84        1.10164
              H 17 -- C 6                    0.84        1.10186
              H 3  -- C 2                    0.85        1.10405
              H 4  -- C 2                    0.85        1.10499
               C 1 -- N 1                    0.51        1.51307
               C 3 -- N 1                    0.50        1.51678
               C 1 -- C 2                    0.72        1.51724
               C 6 -- C 7                    0.65        1.52697
               C 3 -- C 4                    0.69        1.52935
               C 2 -- C 6                    0.68        1.53185
               C 4 -- C 5                    0.64        1.54188
               O 1 -- Si 1                   0.52        1.63827
              H 14 -- H 15                  -0.11        1.64720
               O 2 -- Si 1                   0.48        1.65795
               O 3 -- Si 1                   0.48        1.65964
              H 9  -- H 10                  -0.09        1.76486
              H 16 -- H 17                  -0.12        1.76575
              H 1  -- H 2                   -0.11        1.76923
              H 7  -- H 8                   -0.13        1.77042
              H 18 -- H 19                  -0.10        1.77238
              H 18 -- H 20                  -0.10        1.77496
              H 19 -- H 20                  -0.10        1.77615
              H 3  -- H 4                   -0.12        1.77874
              H 5  -- H 6                   -0.11        1.78370
               C 5 -- Si 1                   0.62        1.87955
              H 14 -- C 1                   -0.13        2.07178
              H 2  -- H 7                   -0.05        2.07444
              H 15 -- C 1                   -0.12        2.08751
              H 5  -- N 1                   -0.11        2.09891
              H 1  -- N 1                   -0.11        2.09930
              H 15 -- C 3                   -0.12        2.09971
              H 14 -- C 3                   -0.13        2.10005
              H 2  -- N 1                   -0.10        2.11284
              H 6  -- N 1                   -0.11        2.11645
              H 7  -- C 5                   -0.13        2.15156
              H 3  -- C 1                   -0.14        2.15704
              H 16 -- C 2                   -0.14        2.15759
              H 17 -- C 2                   -0.14        2.15836
              H 8  -- C 3                   -0.14        2.15858
              H 9  -- C 4                   -0.11        2.16146
              H 3  -- C 6                   -0.12        2.16199
              H 4  -- C 1                   -0.13        2.16222
              H 4  -- C 6                   -0.12        2.16462
              H 7  -- C 3                   -0.12        2.16560
              H 16 -- C 7                   -0.13        2.16672
              H 17 -- C 7                   -0.13        2.17061
              H 18 -- C 6                   -0.12        2.17491
              H 19 -- C 6                   -0.12        2.17816
              H 20 -- C 6                   -0.12        2.18299
              H 10 -- C 4                   -0.12        2.18711
              H 1  -- C 2                   -0.12        2.18779
              H 8  -- C 5                   -0.13        2.18812
              H 6  -- C 4                   -0.12        2.18870
              H 2  -- C 2                   -0.12        2.19044
              H 5  -- C 4                   -0.11        2.19411
              H 11 -- Si 1                  -0.13        2.26158
              H 13 -- Si 1                  -0.14        2.29078
              H 12 -- Si 1                  -0.12        2.29861
              H 6  -- H 14                  -0.04        2.30361
              H 5  -- O 2                    0.01        2.31680
              H 1  -- H 5                   -0.02        2.36430
              H 6  -- H 8                   -0.06        2.37778
              H 1  -- H 14                  -0.03        2.39402
              H 2  -- H 15                  -0.03        2.42898
              H 9  -- Si 1                  -0.13        2.44402
              H 8  -- H 9                   -0.04        2.44877
              H 4  -- H 15                  -0.01        2.45093
              H 3  -- H 14                  -0.00        2.46816
              H 5  -- H 14                  -0.01        2.47526
               C 2 -- N 1                   -0.14        2.48981
              H 10 -- Si 1                  -0.12        2.49322
              H 6  -- H 15                  -0.02        2.49809
              H 16 -- H 18                  -0.03        2.50453
              H 7  -- H 9                   -0.02        2.50537
              H 3  -- H 16                  -0.03        2.50646
              H 4  -- H 17                  -0.03        2.50677
              H 1  -- H 3                   -0.04        2.50839
              H 17 -- H 18                  -0.03        2.51295
               C 1 -- C 6                   -0.15        2.51624
               C 4 -- N 1                   -0.13        2.51655
              H 16 -- H 19                  -0.03        2.52738
               C 2 -- C 7                   -0.15        2.53591
              H 17 -- H 20                  -0.03        2.53655
               C 3 -- C 5                   -0.15        2.54500
               C 1 -- C 3                   -0.13        2.54935
              H 2  -- H 17                  -0.01        2.55108
              H 2  -- H 4                   -0.03        2.56208
              H 3  -- H 19                  -0.01        2.56701
              H 7  -- N 1                   -0.04        2.57250
              H 8  -- H 10                  -0.03        2.57299
              H 7  -- O 3                   -0.00        2.57902
              H 4  -- H 20                  -0.01        2.58657
              H 1  -- H 16                  -0.01        2.59462
              H 7  -- H 15                  -0.01        2.59757
               O 1 -- O 3                   -0.08        2.61879
              H 11 -- O 1                   -0.01        2.63094
              H 15 -- C 4                   -0.04        2.64470
              H 5  -- C 5                   -0.05        2.64678
              H 14 -- C 2                   -0.04        2.64845
              H 5  -- C 1                   -0.05        2.65142
              H 15 -- C 2                   -0.03        2.67237
              H 5  -- H 7                   -0.01        2.70882
              H 4  -- N 1                   -0.03        2.70914
              H 1  -- C 3                   -0.04        2.72263
              H 16 -- C 1                   -0.04        2.72858
              H 2  -- O 3                    0.00        2.72869
              H 17 -- C 1                   -0.04        2.73750
               O 2 -- O 3                   -0.07        2.74177
              H 2  -- C 3                   -0.02        2.74293
              H 8  -- H 15                   0.00        2.74406
              H 3  -- N 1                   -0.02        2.74685
               O 1 -- O 2                   -0.07        2.75171
              H 3  -- C 7                   -0.04        2.75869
              H 7  -- C 1                   -0.03        2.76285
              H 4  -- C 7                   -0.04        2.76838
              H 10 -- C 3                   -0.04        2.77613
              H 2  -- C 6                   -0.03        2.78528
              H 19 -- C 2                   -0.04        2.79916
               C 5 -- O 2                   -0.11        2.80475
              H 20 -- C 2                   -0.04        2.80788
              H 5  -- H 10                  -0.01        2.81302
              H 2  -- C 4                   -0.03        2.81600
               C 5 -- O 3                   -0.10        2.82272
              H 1  -- C 6                   -0.03        2.83305
               C 4 -- Si 1                  -0.14        2.85724
              H 5  -- Si 1                  -0.03        2.86031
              H 6  -- H 10                  -0.00        2.90944
              H 2  -- H 5                   -0.00        2.91083
              H 10 -- O 2                   -0.01        2.92137
              H 7  -- Si 1                  -0.06        2.95123
              H 4  -- H 14                  -0.00        2.95330
              H 2  -- H 14                   0.03        2.95341
              H 1  -- H 15                   0.03        2.95561
              H 5  -- H 15                   0.03        2.95712
              H 13 -- O 1                   -0.01        2.96428
              H 8  -- N 1                   -0.00        2.96880
               C 5 -- O 1                   -0.08        2.99477
======================================================================
 
 
     Hirshfeld Analysis
     ------------------
Species   Ion     Hirshfeld Charge (e)
======================================
  H        1                 0.07
  H        2                 0.06
  H        3                 0.05
  H        4                 0.05
  H        5                 0.05
  H        6                 0.07
  H        7                 0.04
  H        8                 0.05
  H        9                 0.06
  H       10                 0.05
  H       11                 0.17
  H       12                 0.18
  H       13                 0.17
  H       14                 0.18
  H       15                 0.18
  H       16                 0.04
  H       17                 0.04
  H       18                 0.05
  H       19                 0.05
  H       20                 0.05
  C        1                 0.01
  C        2                -0.06
  C        3                 0.01
  C        4                -0.06
  C        5                -0.14
  C        6                -0.05
  C        7                -0.10
  N        1                 0.04
  O        1                -0.28
  O        2                -0.28
  O        3                -0.28
  Si       1                 0.48
======================================
 

Writing analysis data to Conf_0019.castep_bin

Writing model to Conf_0019.check
 
 A BibTeX formatted list of references used in this run has been written to 
 Conf_0019.bib
 
Initialisation time =     25.70 s
Calculation time    =    838.96 s
Finalisation time   =      1.09 s
Total time          =    865.75 s
Peak Memory Use     = 7910952 kB
 
Overall parallel efficiency rating: Satisfactory (66%)
 
Data was distributed by:-
G-vector (48-way); efficiency rating: Satisfactory (66%)
High Water Mark     = 1763904 kB
