 Job started on host drago31060180.mgmt.cc.csic.es
 at Sun Mar 31 01:33:30 2024

 +-------------------------------------------------+
 |                                                 |
 |      CCC   AA    SSS  TTTTT  EEEEE  PPPP        |
 |     C     A  A  S       T    E      P   P       |
 |     C     AAAA   SS     T    EEE    PPPP        |
 |     C     A  A     S    T    E      P           |
 |      CCC  A  A  SSS     T    EEEEE  P           |
 |                                                 |
 +-------------------------------------------------+
 |                                                 |
 | Materials Studio CASTEP version 2024            |
 | Ab Initio Total Energy Program                  |
 |                                                 |
 | Authors:                                        |
 | M. Segall, M. Probert, C. Pickard, P. Hasnip,   |
 | S. Clark, K. Refson, J. R. Yates,               |
 | A. Bartok-Partay, M. Payne                      |
 |                                                 |
 | Contributors:                                   |
 | P. Lindan, P. Haynes, J. White, V. Milman,      |
 | N. Govind, M. Gibson, P. Tulip, V. Cocula,      |
 | B. Montanari, D. Quigley, M. Glover,            |
 | L. Bernasconi, A. Perlov, M. Plummer,           |
 | E. McNellis, J. Meyer, J. Gale, D. Jochym       |
 | J. Aarons, B. Walker, R. Gillen, D. Jones       |
 | T. Green, I. J. Bush, C. J. Armstrong,          |
 | E. J. Higgins, E. L. Brown, M. S. McFly,        |
 | J. Wilkins, B-C. Shih, P. J. P. Byrne,          |
 | R. J. Maurer, J. C. Womack, J. Dziedzic,        |
 | L. LeBlanc, T. K. Stenczel, J. Kermode,         |
 | S. Sturniolo, B. Shi, B. Durham, M. Evans,      |
 | M. J. Smith, A. Tamerus, Z. Hawkhead,           |
 | V. Ravindran, T. Hollins, S. A. Joyce,          |
 | R. T. Strong, A. M. Reilly                      |
 |                                                 |
 | Copyright (c) 2000 - 2023                       |
 |                                                 |
 | Please cite                                     |
 |                                                 |
 |     "First principles methods using CASTEP"     |
 |                                                 |
 |         Zeitschrift fuer Kristallographie       |
 |           220(5-6) pp. 567-570 (2005)           |
 |                                                 |
 | S. J. Clark, M. D. Segall, C. J. Pickard,       |
 | P. J. Hasnip, M. J. Probert, K. Refson,         |
 | M. C. Payne                                     |
 |                                                 |
 |       in all publications arising from          |
 |              your use of CASTEP                 |
 |                                                 |
 +-------------------------------------------------+
 |                                                 |
 |              http://www.castep.org              |
 |                                                 |
 +-------------------------------------------------+
 
 
 This version was compiled for x86_64-rhel7-intel19.0 on Oct 24 2023
 Code version:    a9f326b
 Intel(R) Math Kernel Library Version 2019.0.4 
 Fundamental constants values: CODATA 2018
 
License checkout of MS_castep successful
 
 
 Atomic calculation performed for H: 1s1
 
 Converged in 41 iterations to an ae energy of -12.488 eV
 
 Identity difference: 2.63E-05
 
   ============================================================                
   | Pseudopotential Report - Date of generation 31-03-2024   |                
   ------------------------------------------------------------                
   | Element: H Ionic charge:  1.00 Level of theory: PBE      |                
   | Atomic Solver: Koelling-Harmon                           |                
   |                                                          |                
   |               Reference Electronic Structure             |                
   |         Orbital         Occupation         Energy        |                
   |            1s              1.000           -0.239        |                
   |                                                          |                
   |                 Pseudopotential Definition               |                
   |        Beta     l      e      Rc     scheme   norm       |                
   |          1      0   -0.239   0.599     qc      0         |                
   |          2      0    0.250   0.599     qc      0         |                
   |         loc     1    0.000   0.599     pn      0         |                
   |                                                          |                
   | Augmentation charge Rinner = 0.421                       |                
   | No partial core correction                               |                
   ------------------------------------------------------------                
   | "1|0.6|9|10|15|10UU(qc=8)[]"                             |                
   ------------------------------------------------------------                
   |      Author: Chris J. Pickard, Cambridge University      |                
   ============================================================                
 
 Doing a self consistent calculation for the test configuration
 
 Atomic calculation performed for H: 1s1
 
 Converged in 41 iterations to an ae energy of -12.488 eV
 
 ---------------------------------------
 AE eigenvalue nl 10 =       -0.23860176
 ---------------------------------------
 PS eigenvalue nl 10 =       -0.23857601
 ---------------------------------------
 Maximum eigenvalue error:   2.57E-05
 
 Derived cutoff energies: C=   1 M=   6 F=  10 E=  20
 
 Checking for ghost states up to   1.51185 Ha
 
 No Ghost States Identified
 
 ***************************************
 
 Atomic calculation performed for C: 1s2 2s2 2p2
 
 Converged in 54 iterations to an ae energy of -1027.632 eV
 
 Identity difference: 2.37E-04
 
   ============================================================                
   | Pseudopotential Report - Date of generation 31-03-2024   |                
   ------------------------------------------------------------                
   | Element: C Ionic charge:  4.00 Level of theory: PBE      |                
   | Atomic Solver: Koelling-Harmon                           |                
   |                                                          |                
   |               Reference Electronic Structure             |                
   |         Orbital         Occupation         Energy        |                
   |            2s              2.000           -0.505        |                
   |            2p              2.000           -0.194        |                
   |                                                          |                
   |                 Pseudopotential Definition               |                
   |        Beta     l      e      Rc     scheme   norm       |                
   |          1      0   -0.505   1.395     qc      0         |                
   |          2      0    0.250   1.395     qc      0         |                
   |          3      1   -0.194   1.395     qc      0         |                
   |          4      1    0.250   1.395     qc      0         |                
   |         loc     2    0.000   1.395     pn      0         |                
   |                                                          |                
   | Augmentation charge Rinner = 0.983                       |                
   | Partial core correction Rc = 0.983                       |                
   ------------------------------------------------------------                
   | "2|1.4|11|12|14.7|20UU:21UU(qc=7)[]"                     |                
   ------------------------------------------------------------                
   |      Author: Chris J. Pickard, Cambridge University      |                
   ============================================================                
 
 Doing a self consistent calculation for the test configuration
 
 Atomic calculation performed for C: 1s2 2s2 2p2
 
 Converged in 54 iterations to an ae energy of -1027.632 eV
 
 ---------------------------------------
 AE eigenvalue nl 10 =      -10.04653081
 AE eigenvalue nl 20 =       -0.50533429
 AE eigenvalue nl 21 =       -0.19423807
 ---------------------------------------
 PS eigenvalue nl 20 =       -0.50531853
 PS eigenvalue nl 21 =       -0.19422214
 ---------------------------------------
 Maximum eigenvalue error:   1.59E-05
 
 Derived cutoff energies: C=   6 M=  10 F=  12 E=  16
 
 Checking for ghost states up to   1.47183 Ha
 
 No Ghost States Identified
 
 ***************************************
 
 Atomic calculation performed for N: 1s2 2s2 2p3
 
 Converged in 55 iterations to an ae energy of -1481.742 eV
 
 Identity difference: 2.27E-04
 
   ============================================================                
   | Pseudopotential Report - Date of generation 31-03-2024   |                
   ------------------------------------------------------------                
   | Element: N Ionic charge:  5.00 Level of theory: PBE      |                
   | Atomic Solver: Koelling-Harmon                           |                
   |                                                          |                
   |               Reference Electronic Structure             |                
   |         Orbital         Occupation         Energy        |                
   |            2s              2.000           -0.683        |                
   |            2p              3.000           -0.261        |                
   |                                                          |                
   |                 Pseudopotential Definition               |                
   |        Beta     l      e      Rc     scheme   norm       |                
   |          1      0   -0.683   1.100     qc      0         |                
   |          2      0    0.250   1.100     qc      0         |                
   |          3      1   -0.261   1.100     qc      0         |                
   |          4      1    0.250   1.100     qc      0         |                
   |         loc     2    0.000   1.100     pn      0         |                
   |                                                          |                
   | Augmentation charge Rinner = 0.769                       |                
   | Partial core correction Rc = 0.769                       |                
   ------------------------------------------------------------                
   | "2|1.1|12|16|19|20UU:21UU(qc=7)[]"                       |                
   ------------------------------------------------------------                
   |      Author: Chris J. Pickard, Cambridge University      |                
   ============================================================                
 
 Doing a self consistent calculation for the test configuration
 
 Atomic calculation performed for N: 1s2 2s2 2p3
 
 Converged in 55 iterations to an ae energy of -1481.742 eV
 
 ---------------------------------------
 AE eigenvalue nl 10 =      -14.13820921
 AE eigenvalue nl 20 =       -0.68290611
 AE eigenvalue nl 21 =       -0.26054797
 ---------------------------------------
 PS eigenvalue nl 20 =       -0.68291221
 PS eigenvalue nl 21 =       -0.26051708
 ---------------------------------------
 Maximum eigenvalue error:   3.09E-05
 
 Derived cutoff energies: C=  10 M=  15 F=  18 E=  23
 
 Checking for ghost states up to   1.48495 Ha
 
 No Ghost States Identified
 
 ***************************************
 
 Atomic calculation performed for O: 1s2 2s2 2p4
 
 Converged in 61 iterations to an ae energy of -2040.902 eV
 
 Identity difference: 4.10E-04
 
   ============================================================                
   | Pseudopotential Report - Date of generation 31-03-2024   |                
   ------------------------------------------------------------                
   | Element: O Ionic charge:  6.00 Level of theory: PBE      |                
   | Atomic Solver: Koelling-Harmon                           |                
   |                                                          |                
   |               Reference Electronic Structure             |                
   |         Orbital         Occupation         Energy        |                
   |            2s              2.000           -0.881        |                
   |            2p              4.000           -0.332        |                
   |                                                          |                
   |                 Pseudopotential Definition               |                
   |        Beta     l      e      Rc     scheme   norm       |                
   |          1      0   -0.881   1.100     qc      0         |                
   |          2      0    0.250   1.100     qc      0         |                
   |          3      1   -0.332   1.100     qc      0         |                
   |          4      1    0.250   1.100     qc      0         |                
   |         loc     2    0.000   1.100     pn      0         |                
   |                                                          |                
   | Augmentation charge Rinner = 0.769                       |                
   | Partial core correction Rc = 0.769                       |                
   ------------------------------------------------------------                
   | "2|1.1|14|18|21|20UU:21UU(qc=7)[]"                       |                
   ------------------------------------------------------------                
   |      Author: Chris J. Pickard, Cambridge University      |                
   ============================================================                
 
 Doing a self consistent calculation for the test configuration
 
 Atomic calculation performed for O: 1s2 2s2 2p4
 
 Converged in 61 iterations to an ae energy of -2040.902 eV
 
 ---------------------------------------
 AE eigenvalue nl 10 =      -18.91475256
 AE eigenvalue nl 20 =       -0.88057101
 AE eigenvalue nl 21 =       -0.33186952
 ---------------------------------------
 PS eigenvalue nl 20 =       -0.88059206
 PS eigenvalue nl 21 =       -0.33182157
 ---------------------------------------
 Maximum eigenvalue error:   4.80E-05
 
 Derived cutoff energies: C=  14 M=  17 F=  20 E=  22
 
 Checking for ghost states up to   1.49452 Ha
 
 No Ghost States Identified
 
 ***************************************
 
 Atomic calculation performed for Si: 1s2 2s2 2p6 3s2 3p2
 
 Converged in 54 iterations to an ae energy of -7886.857 eV
 
 Identity difference: 1.35E-04
 
   ============================================================                
   | Pseudopotential Report - Date of generation 31-03-2024   |                
   ------------------------------------------------------------                
   | Element: Si Ionic charge:  4.00 Level of theory: PBE     |                
   | Atomic Solver: Koelling-Harmon                           |                
   |                                                          |                
   |               Reference Electronic Structure             |                
   |         Orbital         Occupation         Energy        |                
   |            3s              2.000           -0.397        |                
   |            3p              2.000           -0.150        |                
   |                                                          |                
   |                 Pseudopotential Definition               |                
   |        Beta     l      e      Rc     scheme   norm       |                
   |          1      0   -0.397   1.797     qc      0         |                
   |          2      0    0.250   1.797     qc      0         |                
   |          3      1   -0.150   1.797     qc      0         |                
   |          4      1    0.250   1.797     qc      0         |                
   |          5      2    0.000   1.797     qc      0         |                
   |          6      2    0.250   1.797     qc      0         |                
   |         loc     3    0.000   1.797     pn      0         |                
   |                                                          |                
   | Augmentation charge Rinner = 1.255                       |                
   | Partial core correction Rc = 1.255                       |                
   ------------------------------------------------------------                
   | "3|1.8|3.6|5|7|30UU:31UU:32UU[]"                         |                
   ------------------------------------------------------------                
   |      Author: Chris J. Pickard, Cambridge University      |                
   ============================================================                
 
 Doing a self consistent calculation for the test configuration
 
 Atomic calculation performed for Si: 1s2 2s2 2p6 3s2 3p2
 
 Converged in 54 iterations to an ae energy of -7886.857 eV
 
 ---------------------------------------
 AE eigenvalue nl 10 =      -65.63192903
 AE eigenvalue nl 20 =       -5.12654326
 AE eigenvalue nl 21 =       -3.51173659
 AE eigenvalue nl 30 =       -0.39736430
 AE eigenvalue nl 31 =       -0.14998156
 ---------------------------------------
 PS eigenvalue nl 30 =       -0.39734922
 PS eigenvalue nl 31 =       -0.14996719
 ---------------------------------------
 Maximum eigenvalue error:   1.51E-05
 
 Derived cutoff energies: C=   1 M=   3 F=   6 E=   6
 
 Checking for ghost states up to   1.41161 Ha
 
 No Ghost States Identified
 
 ***************************************
 
 Pseudo atomic calculation performed for H 1s1
 
 Converged in 13 iterations to a total energy of -12.4790 eV
 
 Pseudo atomic calculation performed for C 2s2 2p2
 
 Converged in 17 iterations to a total energy of -148.5208 eV
 
 Pseudo atomic calculation performed for N 2s2 2p3
 
 Converged in 21 iterations to a total energy of -268.1820 eV
 
 Pseudo atomic calculation performed for O 2s2 2p4
 
 Converged in 23 iterations to a total energy of -432.6536 eV
 
 Pseudo atomic calculation performed for Si 3s2 3p2
 
 Converged in 11 iterations to a total energy of -165.0683 eV
 Calculation parallelised over 48 processes.
 Data is distributed by G-vector(48-way)

 ************************************ Title ************************************
 CASTEP calculation from BIOVIA Materials Studio 2024

 ***************************** General Parameters ******************************
  
 output verbosity                               : normal  (1)
 write checkpoint data to                       : Conf_0029.check
 type of calculation                            : geometry optimization
 stress calculation                             : off
 density difference calculation                 : off
 electron localisation func (ELF) calculation   : off
 Hirshfeld analysis                             : on
 polarisation (Berry phase) analysis            : off
 molecular orbital projected DOS                : off
 deltaSCF calculation                           : off
 unlimited duration calculation
 timing information                             : on
 memory usage estimate                          : on
 write extra output files                       : on
 write final potential to formatted file        : off
 write final density to formatted file          : off
 write BibTeX reference list                    : on
 write OTFG pseudopotential files               : on
 write electrostatic potential file             : on
 write bands file                               : on
 checkpoint writing                             : both castep_bin and check files
  
 output         length unit                     : A
 output           mass unit                     : amu
 output           time unit                     : ps
 output         charge unit                     : e
 output           spin unit                     : hbar/2
 output         energy unit                     : eV
 output          force unit                     : eV/A
 output       velocity unit                     : A/ps
 output       pressure unit                     : GPa
 output     inv_length unit                     : 1/A
 output      frequency unit                     : cm-1
 output force constant unit                     : eV/A**2
 output         volume unit                     : A**3
 output   IR intensity unit                     : (D/A)**2/amu
 output         dipole unit                     : D
 output         efield unit                     : eV/A/e
 output        entropy unit                     : J/mol/K
 output    efield chi2 unit                     : pm/V
  
 wavefunctions paging                           : none
 random number generator seed                   :   13333335
 data distribution                              : optimal for this architecture
 optimization strategy                          : balance speed and memory

 *********************** Exchange-Correlation Parameters ***********************
  
 using functional                               : Perdew Burke Ernzerhof
 relativistic treatment                         : Koelling-Harmon
 DFT+D: Semi-empirical dispersion correction    : on
 SEDC with                                      : G06 correction scheme

 ************************* Pseudopotential Parameters **************************
  
 pseudopotential representation                 : reciprocal space
 <beta|phi> representation                      : reciprocal space
 spin-orbit coupling                            : off

 **************************** Basis Set Parameters *****************************
  
 plane wave basis set cut-off                   :   600.0000   eV
 size of standard grid                          :     1.5000
 size of   fine   gmax                          :    18.8237   1/A
 largest prime factor in FFT                    :          5
 finite basis set correction                    : none

 **************************** Electronic Parameters ****************************
  
 number of  electrons                           :  74.00    
 net charge of system                           : +1.000    
 treating system as non-spin-polarized
 number of bands                                :         37

 ********************* Electronic Minimization Parameters **********************
  
 Method: Treating system as non-metallic,
         and number of  SD  steps               :          1
         and number of  CG  steps               :          4
  
 total energy / atom convergence tol.           : 0.2000E-05   eV
 eigen-energy convergence tolerance             : 0.1000E-05   eV
 max force / atom convergence tol.              : ignored
 convergence tolerance window                   :          3   cycles
 max. number of SCF cycles                      :        100
 periodic dipole correction                     : NONE

 ************************** Density Mixing Parameters **************************
  
 density-mixing scheme                          : Pulay
 max. length of mixing history                  :         20
 charge density mixing amplitude                : 0.5000    
 cut-off energy for mixing                      :  600.0       eV
 charge density mixing g-vector                 :  1.500       1/A

 *********************** Population Analysis Parameters ************************
  
 Population analysis with cutoff                :  3.000       A
 Population analysis output                     : summary and pdos components

 ********************** Geometry Optimization Parameters ***********************
  
 optimization method                            : LBFGS
 max. no. of LBFGS updates                      : unbounded
 preconditioned LBFGS is activated
 preconditioner type                            : EXP
     stabilization constant                     :     0.1000
     parameter A                                :     3.0000
     nearest neighbor distance                  : automatic
     cut-off distance                           : automatic
     parameter mu                               : automatic
 variable cell method                           : fixed basis quality
 max. number of steps                           :        300
 estimated bulk modulus                         :  500.0       GPa
 estimated <frequency>                          :  1668.       cm-1
 geom line minimiser                            : on
 with line minimiser tolerance                  :     0.4000
 total energy convergence tolerance             : 0.2000E-04   eV/atom
        max ionic |force| tolerance             : 0.5000E-01   eV/A
 max ionic |displacement| tolerance             : 0.2000E-02   A
   max |stress component| tolerance             : 0.1000       GPa
 convergence tolerance window                   :          2   steps
 backup results every                           :          5   steps
 write geom trajectory file                     : on

 *******************************************************************************
  
 
                           -------------------------------
                                      Unit Cell
                           -------------------------------
        Real Lattice(A)                      Reciprocal Lattice(1/A)
    13.4840002    -0.0000006    -0.0000006        0.465973392   0.000000000   0.000000000
     0.0000000    20.4006996    -0.0000009        0.000000013   0.307988717   0.000000000
     0.0000000     0.0000000    45.0000000        0.000000006   0.000000006   0.139626340
 
                       Lattice parameters(A)       Cell Angles
                    a =     13.484000          alpha =   90.000003
                    b =     20.400700          beta  =   90.000003
                    c =     45.000000          gamma =   90.000003
 
                       Current cell volume =         12378.736702       A**3
                                   density =             0.015698   AMU/A**3
                                           =             0.026068     g/cm^3
 
                           -------------------------------
                                     Cell Contents
                           -------------------------------
                         Total number of ions in cell =   32
                      Total number of species in cell =    5
                        Max number of any one species =   20
 
            xxxxxxxxxxxxxxxxxxxxxxxxxxxxxxxxxxxxxxxxxxxxxxxxxxxxxxxxxxxx
            x  Element    Atom        Fractional coordinates of atoms  x
            x            Number           u          v          w      x
            x----------------------------------------------------------x
            x  H            1         0.613192   0.410447   0.553830   x 
            x  H            2         0.679820   0.485163   0.560880   x 
            x  H            3         0.455484   0.464545   0.572140   x 
            x  H            4         0.522575   0.537665   0.579706   x 
            x  H            5         0.733053   0.487908   0.511282   x 
            x  H            6         0.668175   0.412186   0.504759   x 
            x  H            7         0.707462   0.476652   0.457660   x 
            x  H            8         0.631163   0.541414   0.470073   x 
            x  H            9         0.482412   0.465977   0.468647   x 
            x  H           10         0.560434   0.399015   0.459701   x 
            x  H           11         0.505914   0.563368   0.390296   x 
            x  H           12         0.432415   0.430600   0.380550   x 
            x  H           13         0.640478   0.453146   0.377230   x 
            x  H           14         0.513187   0.470123   0.517209   x 
            x  H           15         0.573904   0.539061   0.523666   x 
            x  H           16         0.562547   0.403304   0.608424   x 
            x  H           17         0.629331   0.476089   0.616177   x 
            x  H           18         0.500997   0.453776   0.654963   x 
            x  H           19         0.405643   0.456497   0.627712   x 
            x  H           20         0.474571   0.528589   0.636399   x 
            x  C            1         0.606573   0.464248   0.555439   x 
            x  C            2         0.529007   0.483785   0.578507   x 
            x  C            3         0.663754   0.466008   0.502868   x 
            x  C            4         0.640874   0.487729   0.471125   x 
            x  C            5         0.551607   0.452532   0.457091   x 
            x  C            6         0.555855   0.457258   0.609405   x 
            x  C            7         0.480083   0.475103   0.633330   x 
            x  N            1         0.578504   0.489592   0.523840   x 
            x  O            1         0.444357   0.429304   0.401304   x 
            x  O            2         0.637420   0.449738   0.398214   x 
            x  O            3         0.516678   0.548095   0.409946   x 
            x  Si           1         0.536222   0.470241   0.415712   x 
            xxxxxxxxxxxxxxxxxxxxxxxxxxxxxxxxxxxxxxxxxxxxxxxxxxxxxxxxxxxx
 
 
                         No user defined ionic velocities
 
                           -------------------------------
                                   Details of Species
                           -------------------------------
 
                               Mass of species in AMU
                                    H    1.0080000
                                    C   12.0109997
                                    N   14.0070000
                                    O   15.9989996
                                    Si   28.0849991
 
                          Electric Quadrupole Moment (Barn)
                                    H    0.0028600 Isotope  2
                                    C    0.0332700 Isotope 11
                                    N    0.0204400 Isotope 14
                                    O   -0.0255800 Isotope 17
                                    Si    1.0000000 No Isotope Defined
 
                          Files used for pseudopotentials:
                                    H 1|0.6|9|10|15|10UU(qc=8)[]
                                    C 2|1.4|11|12|14.7|20UU:21UU(qc=7)[]
                                    N 2|1.1|12|16|19|20UU:21UU(qc=7)[]
                                    O 2|1.1|14|18|21|20UU:21UU(qc=7)[]
                                    Si 3|1.8|3.6|5|7|30UU:31UU:32UU[]
 
                           -------------------------------
                              k-Points For BZ Sampling
                           -------------------------------
                       MP grid size for SCF calculation is  1  1  1
                            with an offset of   0.000  0.000  0.000
                       Number of kpoints used =             1
 
                           -------------------------------
                               Symmetry and Constraints
                           -------------------------------
 
                      Maximum deviation from symmetry =  0.00000         ANG
 
                      Number of symmetry operations   =           1
                      Number of nonlinear constraints =           3
         There are no ionic constraints specified or generated for this cell
                      Point group of crystal =     1: C1, 1, 1
                      Space group of crystal =     1: P1, P 1
 
             Set iprint > 1 for details on symmetry rotations/translations
 
                         Centre of mass is NOT constrained
 
                         Number of cell constraints= 6
                         Cell constraints are:  0 0 0 0 0 0
 
                         External pressure/stress (GPa)
                          0.00000   0.00000   0.00000
                                    0.00000   0.00000
                                              0.00000
 
                                --------------------
                                  DFT-D parameters
                                --------------------
 
                          Dispersion-correction scheme : G06       
                        Parameter s6 :   0.750000 (default)
                        Parameter d  :  20.000000 (default)
 
        xxxxxxxxxxxxxxxxxxxxxxxxxxxxxxxxxxxxxxxxxxxxxxxxxxxxxxxxxxxxxxxxxxxx
        x              Atomic DFT-D parameters                             x
        x  Species      C6            R0                                   x
        x               eV A^6        Ang                                  x
        x------------------------------------------------------------------x
        x  H             1.4510       1.0010   (default)                   x
        x  C            18.1375       1.4520   (default)                   x
        x  N            12.7481       1.3970   (default)                   x
        x  O             7.2550       1.3420   (default)                   x
        x  Si           95.6622       1.7160   (default)                   x
        xxxxxxxxxxxxxxxxxxxxxxxxxxxxxxxxxxxxxxxxxxxxxxxxxxxxxxxxxxxxxxxxxxxx
 
 
+---------------- MEMORY AND SCRATCH DISK ESTIMATES PER PROCESS --------------+
|                                                     Memory          Disk    |
| Baseline code, static data and system overhead     6530.0 MB         0.0 MB |
| BLAS internal memory storage                          0.0 MB         0.0 MB |
| Model and support data                              540.6 MB         0.0 MB |
| Electronic energy minimisation requirements          31.8 MB         0.0 MB |
| Force calculation requirements                        6.8 MB         0.0 MB |
|                                               ----------------------------- |
| Approx. total storage required per process         7102.3 MB         0.0 MB |
|                                                                             |
| Requirements will fluctuate during execution and may exceed these estimates |
+-----------------------------------------------------------------------------+
Calculating approximate eigenstates for fixed initial Hamiltonian
Cut-off for approx. calculation is  119.774 eV
Improving approx. states at cut-off of  300.000 eV
Resetting cut-off to  600.000 eV
Calculating total energy with cut-off of  600.000 eV.
------------------------------------------------------------------------ <-- SCF
SCF loop      Energy                           Energy gain       Timer   <-- SCF
                                               per atom          (sec)   <-- SCF
------------------------------------------------------------------------ <-- SCF
Initial  -2.98526580E+003                                         30.53  <-- SCF
      1  -3.20422406E+003                    6.84244576E+000      31.41  <-- SCF
      2  -3.20482417E+003                    1.87533993E-002      32.30  <-- SCF
      3  -3.19274274E+003                   -3.77544627E-001      33.33  <-- SCF
      4  -3.19154617E+003                   -3.73928691E-002      34.51  <-- SCF
      5  -3.19087016E+003                   -2.11252843E-002      35.52  <-- SCF
      6  -3.19077535E+003                   -2.96277056E-003      36.84  <-- SCF
      7  -3.19070421E+003                   -2.22300098E-003      37.86  <-- SCF
      8  -3.19069473E+003                   -2.96298358E-004      38.97  <-- SCF
      9  -3.19068352E+003                   -3.50269913E-004      39.99  <-- SCF
     10  -3.19067113E+003                   -3.87453222E-004      41.03  <-- SCF
     11  -3.19064574E+003                   -7.93338471E-004      42.07  <-- SCF
     12  -3.19059934E+003                   -1.45003675E-003      43.09  <-- SCF
     13  -3.19053709E+003                   -1.94525008E-003      44.13  <-- SCF
     14  -3.19047594E+003                   -1.91109959E-003      45.17  <-- SCF
     15  -3.19042963E+003                   -1.44709332E-003      46.19  <-- SCF
     16  -3.19038947E+003                   -1.25483994E-003      47.18  <-- SCF
     17  -3.19035470E+003                   -1.08669215E-003      48.16  <-- SCF
     18  -3.19033337E+003                   -6.66392206E-004      49.13  <-- SCF
     19  -3.19030813E+003                   -7.88783431E-004      50.11  <-- SCF
     20  -3.19028579E+003                   -6.98370143E-004      51.13  <-- SCF
     21  -3.19026799E+003                   -5.56033634E-004      52.09  <-- SCF
     22  -3.19025207E+003                   -4.97544818E-004      53.00  <-- SCF
     23  -3.19024664E+003                   -1.69811579E-004      53.98  <-- SCF
     24  -3.19024446E+003                   -6.80601659E-005      54.87  <-- SCF
     25  -3.19024719E+003                    8.52332528E-005      55.77  <-- SCF
     26  -3.19025091E+003                    1.16362069E-004      56.66  <-- SCF
     27  -3.19025565E+003                    1.48084388E-004      57.52  <-- SCF
     28  -3.19025972E+003                    1.27175789E-004      58.31  <-- SCF
     29  -3.19026387E+003                    1.29605095E-004      59.12  <-- SCF
     30  -3.19026683E+003                    9.27579673E-005      59.92  <-- SCF
     31  -3.19026885E+003                    6.31221066E-005      60.72  <-- SCF
     32  -3.19027047E+003                    5.06035171E-005      61.52  <-- SCF
     33  -3.19027170E+003                    3.81998722E-005      62.31  <-- SCF
     34  -3.19027231E+003                    1.91979960E-005      63.11  <-- SCF
     35  -3.19027331E+003                    3.12855880E-005      63.91  <-- SCF
     36  -3.19027386E+003                    1.72531246E-005      64.71  <-- SCF
     37  -3.19027449E+003                    1.95654650E-005      65.50  <-- SCF
     38  -3.19027482E+003                    1.01771831E-005      66.32  <-- SCF
     39  -3.19027509E+003                    8.61354907E-006      67.14  <-- SCF
     40  -3.19027530E+003                    6.50263515E-006      67.94  <-- SCF
     41  -3.19027561E+003                    9.64333537E-006      68.73  <-- SCF
     42  -3.19027576E+003                    4.67393965E-006      69.53  <-- SCF
     43  -3.19027593E+003                    5.50686388E-006      70.33  <-- SCF
     44  -3.19027605E+003                    3.68301892E-006      71.13  <-- SCF
     45  -3.19027615E+003                    3.01303393E-006      71.92  <-- SCF
     46  -3.19027621E+003                    1.90413932E-006      72.72  <-- SCF
     47  -3.19027625E+003                    1.26468180E-006      73.51  <-- SCF
     48  -3.19027627E+003                    6.67026223E-007      74.31  <-- SCF
------------------------------------------------------------------------ <-- SCF
 
Final energy =  -3190.276270190     eV
(energy not corrected for finite basis set)
 
(SEDC) Total Energy Correction : -0.745275E+00 eV

Dispersion corrected final energy* =  -3191.021544877     eV

Writing analysis data to Conf_0029.castep_bin

Writing model to Conf_0029.check

WARNING - nonlinear constraints cannot be used with LBFGS algorithm
        - consider setting geom_method=DELOCALIZED
 
        => Turning nonlinear constraints OFF
 
+---------------- MEMORY AND SCRATCH DISK ESTIMATES PER PROCESS --------------+
|                                                     Memory          Disk    |
| Model and support data                              550.1 MB         0.0 MB |
| Electronic energy minimisation requirements          31.8 MB         0.0 MB |
| Geometry minimisation requirements                   34.8 MB         0.0 MB |
|                                               ----------------------------- |
| Approx. total storage required per process          616.7 MB         0.0 MB |
|                                                                             |
| Requirements will fluctuate during execution and may exceed these estimates |
+-----------------------------------------------------------------------------+
 
 
 ************************************** Forces **************************************
 *                                                                                  *
 *                           Cartesian components (eV/A)                            *
 * -------------------------------------------------------------------------------- *
 *                         x                    y                    z              *
 *                                                                                  *
 * H               1     -0.02273              0.23339             -0.15181         *
 * H               2     -0.14039             -0.06243             -0.21177         *
 * H               3      0.01163              0.01018             -0.05060         *
 * H               4      0.03005              0.00331             -0.04302         *
 * H               5     -0.25422             -0.01801              0.06547         *
 * H               6     -0.14810              0.19015              0.07848         *
 * H               7     -0.04420              0.08255              0.13696         *
 * H               8      0.07681             -0.08281              0.05617         *
 * H               9     -0.10689              0.02579             -0.10121         *
 * H              10     -0.01678              0.00151             -0.12131         *
 * H              11     -0.16693              0.37565             -0.86572         *
 * H              12     -0.20092             -0.06256             -0.97907         *
 * H              13      0.12038              0.01221             -1.04654         *
 * H              14     -0.58318             -0.25911             -0.21775         *
 * H              15     -0.05483              0.64183             -0.04587         *
 * H              16      0.02914              0.09299             -0.10599         *
 * H              17     -0.05980             -0.04765             -0.13004         *
 * H              18     -0.00223              0.01204             -0.16619         *
 * H              19      0.04719              0.03190             -0.02618         *
 * H              20      0.01433             -0.04809             -0.03908         *
 * C               1     -0.77876              0.43755              0.05372         *
 * C               2      0.01916             -0.00933              0.03015         *
 * C               3     -0.77487              0.69509             -0.45673         *
 * C               4      0.34863             -0.21059             -0.32217         *
 * C               5     -0.06891              0.05857             -0.29521         *
 * C               6      0.17968             -0.16011              0.17054         *
 * C               7     -0.13496              0.06434              0.10185         *
 * N               1      2.35172             -1.51304              0.88792         *
 * O               1     -0.45533             -0.61125              1.44450         *
 * O               2      0.83709             -0.40039              1.42688         *
 * O               3      0.04500              0.48966              1.58658         *
 * Si              1     -0.09677              0.02667             -0.66296         *
 *                                                                                  *
 ************************************************************************************
 EXP precond LBFGS => estimated nearest neighbor distance :  1.629       A
 EXP precond LBFGS => estimated cutoff distance :  3.257       A
 doing test perturbation to get energy scale for EXP preconditioner
 
                           -------------------------------
                                     Cell Contents
                           -------------------------------
 
            xxxxxxxxxxxxxxxxxxxxxxxxxxxxxxxxxxxxxxxxxxxxxxxxxxxxxxxxxxxxxxxxx
            x  Element         Atom        Fractional coordinates of atoms  x
            x                 Number           u          v          w      x
            x---------------------------------------------------------------x
            x  H                 1         0.614345   0.410927   0.554160   x
            x  H                 2         0.680876   0.485313   0.561206   x
            x  H                 3         0.456672   0.464792   0.572459   x
            x  H                 4         0.523782   0.537562   0.580021   x
            x  H                 5         0.734001   0.488045   0.511631   x
            x  H                 6         0.669252   0.412658   0.505110   x
            x  H                 7         0.708465   0.476842   0.458020   x
            x  H                 8         0.632295   0.541293   0.470432   x
            x  H                 9         0.483614   0.466218   0.469006   x
            x  H                10         0.561630   0.399538   0.460061   x
            x  H                11         0.507122   0.563142   0.390653   x
            x  H                12         0.433585   0.430998   0.380905   x
            x  H                13         0.641597   0.453446   0.377584   x
            x  H                14         0.514394   0.470344   0.517555   x
            x  H                15         0.575092   0.538951   0.524010   x
            x  H                16         0.563742   0.403811   0.608718   x
            x  H                17         0.630465   0.476283   0.616466   x
            x  H                18         0.502203   0.454072   0.655218   x
            x  H                19         0.406785   0.456782   0.627991   x
            x  H                20         0.475770   0.528530   0.636671   x
            x  C                 1         0.607733   0.464496   0.555768   x
            x  C                 2         0.530213   0.483942   0.578823   x
            x  C                 3         0.664838   0.466248   0.503219   x
            x  C                 4         0.641993   0.487867   0.471484   x
            x  C                 5         0.552807   0.452834   0.457452   x
            x  C                 6         0.557053   0.457539   0.609699   x
            x  C                 7         0.481284   0.475301   0.633604   x
            x  N                 1         0.579689   0.489721   0.524184   x
            x  O                 1         0.445537   0.429707   0.401663   x
            x  O                 2         0.638543   0.450053   0.398573   x
            x  O                 3         0.517885   0.547941   0.410307   x
            x  Si                1         0.537427   0.470462   0.416073   x
            xxxxxxxxxxxxxxxxxxxxxxxxxxxxxxxxxxxxxxxxxxxxxxxxxxxxxxxxxxxxxxxxx
 
 
------------------------------------------------------------------------ <-- SCF
SCF loop      Energy                           Energy gain       Timer   <-- SCF
                                               per atom          (sec)   <-- SCF
------------------------------------------------------------------------ <-- SCF
Initial  -3.19265722E+003                                         76.27  <-- SCF
      1  -3.19025256E+003                   -7.51454870E-002      77.07  <-- SCF
      2  -3.19027508E+003                    7.03766078E-004      78.23  <-- SCF
      3  -3.19024786E+003                   -8.50562091E-004      79.24  <-- SCF
      4  -3.19026595E+003                    5.65092818E-004      80.25  <-- SCF
      5  -3.19026619E+003                    7.49148444E-006      81.09  <-- SCF
      6  -3.19026643E+003                    7.56579649E-006      81.89  <-- SCF
      7  -3.19026649E+003                    2.07821337E-006      82.66  <-- SCF
      8  -3.19026655E+003                    1.66826079E-006      83.42  <-- SCF
      9  -3.19026660E+003                    1.67129511E-006      84.19  <-- SCF
     10  -3.19026664E+003                    1.09944054E-006      84.96  <-- SCF
     11  -3.19026668E+003                    1.30482458E-006      85.73  <-- SCF
     12  -3.19026670E+003                    6.10855334E-007      86.50  <-- SCF
------------------------------------------------------------------------ <-- SCF
 
Final energy =  -3190.266697360     eV
(energy not corrected for finite basis set)
 
(SEDC) Total Energy Correction : -0.744794E+00 eV

Dispersion corrected final energy* =  -3191.011490914     eV
 
 ************************************** Forces **************************************
 *                                                                                  *
 *                           Cartesian components (eV/A)                            *
 * -------------------------------------------------------------------------------- *
 *                         x                    y                    z              *
 *                                                                                  *
 * H               1     -0.01665              0.08200             -0.14886         *
 * H               2     -0.08537             -0.02834             -0.19345         *
 * H               3      0.01003             -0.00638             -0.04674         *
 * H               4      0.01094              0.16943             -0.03144         *
 * H               5     -0.21311              0.03607              0.06916         *
 * H               6     -0.14397              0.03883              0.09136         *
 * H               7     -0.01763              0.06399              0.12327         *
 * H               8      0.05913              0.08428              0.02680         *
 * H               9     -0.11394              0.03211             -0.09467         *
 * H              10     -0.01745             -0.13572             -0.11280         *
 * H              11     -0.14310              0.40054             -0.87016         *
 * H              12     -0.18916             -0.06795             -0.98036         *
 * H              13      0.12406              0.00322             -1.05564         *
 * H              14     -0.64015             -0.29198             -0.22562         *
 * H              15     -0.07202              0.87119             -0.03751         *
 * H              16      0.03676             -0.05612             -0.11128         *
 * H              17      0.00122             -0.02129             -0.12436         *
 * H              18     -0.00370             -0.02025             -0.11833         *
 * H              19      0.05809              0.02154             -0.02339         *
 * H              20      0.02101              0.11632             -0.01532         *
 * C               1     -0.81913              0.49384              0.03627         *
 * C               2      0.00879             -0.08998              0.00923         *
 * C               3     -0.81871              0.74710             -0.48027         *
 * C               4      0.35374             -0.27480             -0.30556         *
 * C               5     -0.11158              0.11858             -0.32023         *
 * C               6      0.15051             -0.10656              0.17061         *
 * C               7     -0.15485             -0.03388              0.06557         *
 * N               1      2.39206             -1.65665              0.92735         *
 * O               1     -0.50696             -0.66521              1.43878         *
 * O               2      0.87718             -0.42271              1.38846         *
 * O               3      0.03522              0.73117              1.54584         *
 * Si              1     -0.07125             -0.13237             -0.59670         *
 *                                                                                  *
 ************************************************************************************
 EXP precond LBFGS => estimated parameter mu :  3.026       eV/A**2
 LBFGS: finished iteration     0 with enthalpy= -3.19102154E+003 eV
  
 +-----------+-----------------+-----------------+------------+-----+ <-- LBFGS
 | Parameter |      value      |    tolerance    |    units   | OK? | <-- LBFGS
 +-----------+-----------------+-----------------+------------+-----+ <-- LBFGS
 |  dE/ion   |   0.000000E+000 |   2.000000E-005 |         eV | No  | <-- LBFGS
 |  |F|max   |   3.053919E+000 |   5.000000E-002 |       eV/A | No  | <-- LBFGS
 |  |dR|max  |   5.536266E-015 |   2.000000E-003 |          A | No  | <-- LBFGS
 +-----------+-----------------+-----------------+------------+-----+ <-- LBFGS
  

================================================================================
 Starting LBFGS iteration          1 ...
================================================================================
  
 +------------+-------------+-------------+-----------------+ <-- min LBFGS
 |    Step    |   lambda    |   F.delta'  |    enthalpy     | <-- min LBFGS
 +------------+-------------+-------------+-----------------+ <-- min LBFGS
 |  previous  |    0.000000 |    2.243329 |    -3191.021545 | <-- min LBFGS
 +------------+-------------+-------------+-----------------+ <-- min LBFGS
  

--------------------------------------------------------------------------------
 LBFGS: starting iteration         1 with trial guess (lambda=  1.000000)
--------------------------------------------------------------------------------
 
                           -------------------------------
                                     Cell Contents
                           -------------------------------
 
            xxxxxxxxxxxxxxxxxxxxxxxxxxxxxxxxxxxxxxxxxxxxxxxxxxxxxxxxxxxxxxxxx
            x  Element         Atom        Fractional coordinates of atoms  x
            x                 Number           u          v          w      x
            x---------------------------------------------------------------x
            x  H                 1         0.612214   0.411700   0.552982   x
            x  H                 2         0.678406   0.485685   0.559965   x
            x  H                 3         0.455410   0.464946   0.571313   x
            x  H                 4         0.522579   0.538057   0.578888   x
            x  H                 5         0.731031   0.488669   0.510772   x
            x  H                 6         0.666562   0.413430   0.504259   x
            x  H                 7         0.707519   0.476928   0.457411   x
            x  H                 8         0.631805   0.541261   0.469723   x
            x  H                 9         0.481759   0.465892   0.468221   x
            x  H                10         0.560044   0.398909   0.459238   x
            x  H                11         0.504717   0.567414   0.392458   x
            x  H                12         0.427556   0.426517   0.382032   x
            x  H                13         0.647657   0.450553   0.378425   x
            x  H                14         0.513405   0.468939   0.516711   x
            x  H                15         0.575953   0.539813   0.523341   x
            x  H                16         0.562554   0.403899   0.607410   x
            x  H                17         0.628973   0.476291   0.615133   x
            x  H                18         0.500679   0.454241   0.653782   x
            x  H                19         0.405541   0.457019   0.626721   x
            x  H                20         0.474327   0.528884   0.635391   x
            x  C                 1         0.604631   0.465318   0.554775   x
            x  C                 2         0.528835   0.484198   0.577734   x
            x  C                 3         0.661633   0.467437   0.502097   x
            x  C                 4         0.641600   0.487594   0.470503   x
            x  C                 5         0.551243   0.452482   0.456637   x
            x  C                 6         0.556034   0.457433   0.608576   x
            x  C                 7         0.479600   0.475594   0.632391   x
            x  N                 1         0.583764   0.487641   0.523905   x
            x  O                 1         0.439397   0.424630   0.404777   x
            x  O                 2         0.645694   0.446639   0.401459   x
            x  O                 3         0.516247   0.551764   0.414045   x
            x  Si                1         0.536324   0.469380   0.417013   x
            xxxxxxxxxxxxxxxxxxxxxxxxxxxxxxxxxxxxxxxxxxxxxxxxxxxxxxxxxxxxxxxxx
 
 
------------------------------------------------------------------------ <-- SCF
SCF loop      Energy                           Energy gain       Timer   <-- SCF
                                               per atom          (sec)   <-- SCF
------------------------------------------------------------------------ <-- SCF
Initial  -3.21222657E+003                                         87.85  <-- SCF
      1  -3.18799523E+003                   -7.57229574E-001      88.65  <-- SCF
      2  -3.19053529E+003                    7.93771430E-002      89.94  <-- SCF
      3  -3.19000942E+003                   -1.64335340E-002      91.09  <-- SCF
      4  -3.19012341E+003                    3.56217863E-003      92.14  <-- SCF
      5  -3.19015167E+003                    8.83117548E-004      93.29  <-- SCF
      6  -3.19015432E+003                    8.27425463E-005      94.33  <-- SCF
      7  -3.19015479E+003                    1.46053919E-005      95.15  <-- SCF
      8  -3.19015509E+003                    9.54769900E-006      96.00  <-- SCF
      9  -3.19015523E+003                    4.26314208E-006      96.84  <-- SCF
     10  -3.19015530E+003                    2.27916557E-006      97.62  <-- SCF
     11  -3.19015536E+003                    1.97709127E-006      98.42  <-- SCF
     12  -3.19015544E+003                    2.25054023E-006      99.20  <-- SCF
     13  -3.19015554E+003                    3.24865449E-006      99.98  <-- SCF
     14  -3.19015573E+003                    6.02028843E-006     100.75  <-- SCF
     15  -3.19015583E+003                    3.06198277E-006     101.53  <-- SCF
     16  -3.19015602E+003                    5.80394854E-006     102.31  <-- SCF
     17  -3.19015608E+003                    2.12153330E-006     103.09  <-- SCF
     18  -3.19015627E+003                    5.82262726E-006     103.87  <-- SCF
     19  -3.19015634E+003                    2.21995162E-006     104.65  <-- SCF
     20  -3.19015644E+003                    3.00833048E-006     105.44  <-- SCF
     21  -3.19015650E+003                    2.06037649E-006     106.23  <-- SCF
     22  -3.19015657E+003                    2.05952416E-006     107.01  <-- SCF
     23  -3.19015661E+003                    1.25971719E-006     107.81  <-- SCF
     24  -3.19015666E+003                    1.40983806E-006     108.60  <-- SCF
     25  -3.19015669E+003                    9.61445616E-007     109.39  <-- SCF
     26  -3.19015675E+003                    1.94196062E-006     110.18  <-- SCF
     27  -3.19015677E+003                    5.60432841E-007     110.98  <-- SCF
     28  -3.19015684E+003                    2.19467212E-006     111.80  <-- SCF
     29  -3.19015687E+003                    9.11589489E-007     112.59  <-- SCF
     30  -3.19015692E+003                    1.79740939E-006     113.39  <-- SCF
     31  -3.19015697E+003                    1.36438414E-006     114.18  <-- SCF
     32  -3.19015702E+003                    1.67723062E-006     114.97  <-- SCF
     33  -3.19015709E+003                    2.06832427E-006     115.76  <-- SCF
     34  -3.19015714E+003                    1.62357108E-006     116.55  <-- SCF
     35  -3.19015720E+003                    1.96372407E-006     117.34  <-- SCF
     36  -3.19015725E+003                    1.50022120E-006     118.13  <-- SCF
     37  -3.19015728E+003                    9.21803802E-007     118.93  <-- SCF
     38  -3.19015731E+003                    8.58814525E-007     119.72  <-- SCF
------------------------------------------------------------------------ <-- SCF
 
Final energy =  -3190.157306386     eV
(energy not corrected for finite basis set)
 
(SEDC) Total Energy Correction : -0.745156E+00 eV

Dispersion corrected final energy* =  -3190.902462636     eV
 
 ************************************** Forces **************************************
 *                                                                                  *
 *                           Cartesian components (eV/A)                            *
 * -------------------------------------------------------------------------------- *
 *                         x                    y                    z              *
 *                                                                                  *
 * H               1      0.01600              0.05072              0.09493         *
 * H               2     -0.10209             -0.11587              0.08839         *
 * H               3     -0.05651              0.04347             -0.01510         *
 * H               4     -0.03205              0.03835             -0.01377         *
 * H               5     -0.02343             -0.02160             -0.08136         *
 * H               6      0.02425              0.21834             -0.07697         *
 * H               7      0.35276             -0.09997             -0.11024         *
 * H               8      0.01420             -0.01133             -0.10100         *
 * H               9      0.01828              0.02987             -0.08821         *
 * H              10     -0.01013              0.03574             -0.04177         *
 * H              11      0.35050             -0.67872              2.36295         *
 * H              12      0.33477             -0.16582              2.58384         *
 * H              13      0.03587             -0.23478              2.70707         *
 * H              14      1.20969              0.50439              0.38734         *
 * H              15      0.08795             -1.34379              0.02839         *
 * H              16      0.03343             -0.14690             -0.03224         *
 * H              17      0.14944              0.05523              0.02058         *
 * H              18      0.02161             -0.06943              0.08890         *
 * H              19     -0.06766             -0.00029             -0.05263         *
 * H              20      0.00986              0.08995             -0.04551         *
 * C               1      0.75567             -0.44719              0.23025         *
 * C               2     -0.39833              0.22260              0.08094         *
 * C               3      0.75252             -0.60801              0.30857         *
 * C               4     -0.74440              0.28018             -0.07163         *
 * C               5      0.13949             -0.16635              1.09280         *
 * C               6     -0.18094              0.08877              0.04193         *
 * C               7      0.05634              0.00208             -0.14383         *
 * N               1     -1.85598              1.27805             -0.82978         *
 * O               1      0.42832              0.69713             -2.24724         *
 * O               2     -0.95041              0.50875             -2.21265         *
 * O               3     -0.21812             -0.61299             -2.19374         *
 * Si              1     -0.15090              0.57942             -1.75919         *
 *                                                                                  *
 ************************************************************************************
  
 +------------+-------------+-------------+-----------------+ <-- min LBFGS
 |    Step    |   lambda    |   F.delta'  |    enthalpy     | <-- min LBFGS
 +------------+-------------+-------------+-----------------+ <-- min LBFGS
 |  previous  |    0.000000 |    2.243329 |    -3191.021545 | <-- min LBFGS
 | trial step |    1.000000 |   -2.434737 |    -3190.902463 | <-- min LBFGS
 +------------+-------------+-------------+-----------------+ <-- min LBFGS
  

--------------------------------------------------------------------------------
 LBFGS: improving iteration         1 with line minimization (lambda=  0.479542)
--------------------------------------------------------------------------------
 
                           -------------------------------
                                     Cell Contents
                           -------------------------------
 
            xxxxxxxxxxxxxxxxxxxxxxxxxxxxxxxxxxxxxxxxxxxxxxxxxxxxxxxxxxxxxxxxx
            x  Element         Atom        Fractional coordinates of atoms  x
            x                 Number           u          v          w      x
            x---------------------------------------------------------------x
            x  H                 1         0.612723   0.411048   0.553423   x
            x  H                 2         0.679142   0.485413   0.560441   x
            x  H                 3         0.455449   0.464737   0.571743   x
            x  H                 4         0.522577   0.537853   0.579314   x
            x  H                 5         0.732083   0.488273   0.511037   x
            x  H                 6         0.667402   0.412782   0.504519   x
            x  H                 7         0.707489   0.476784   0.457541   x
            x  H                 8         0.631471   0.541341   0.469905   x
            x  H                 9         0.482099   0.465936   0.468442   x
            x  H                10         0.560247   0.398964   0.459479   x
            x  H                11         0.505340   0.565308   0.391333   x
            x  H                12         0.430085   0.428642   0.381261   x
            x  H                13         0.643921   0.451903   0.377803   x
            x  H                14         0.513291   0.469555   0.516970   x
            x  H                15         0.574887   0.539422   0.523510   x
            x  H                16         0.562551   0.403589   0.607937   x
            x  H                17         0.629159   0.476186   0.615676   x
            x  H                18         0.500844   0.453999   0.654397   x
            x  H                19         0.405594   0.456747   0.627237   x
            x  H                20         0.474454   0.528731   0.635916   x
            x  C                 1         0.605642   0.464761   0.555121   x
            x  C                 2         0.528924   0.483983   0.578136   x
            x  C                 3         0.662737   0.466693   0.502498   x
            x  C                 4         0.641223   0.487664   0.470827   x
            x  C                 5         0.551432   0.452508   0.456873   x
            x  C                 6         0.555940   0.457342   0.609008   x
            x  C                 7         0.479851   0.475338   0.632880   x
            x  N                 1         0.581026   0.488656   0.523871   x
            x  O                 1         0.441978   0.427062   0.402969   x
            x  O                 2         0.641388   0.448252   0.399770   x
            x  O                 3         0.516471   0.549854   0.411912   x
            x  Si                1         0.536271   0.469828   0.416336   x
            xxxxxxxxxxxxxxxxxxxxxxxxxxxxxxxxxxxxxxxxxxxxxxxxxxxxxxxxxxxxxxxxx
 
 
------------------------------------------------------------------------ <-- SCF
SCF loop      Energy                           Energy gain       Timer   <-- SCF
                                               per atom          (sec)   <-- SCF
------------------------------------------------------------------------ <-- SCF
Initial  -3.19884878E+003                                        121.07  <-- SCF
      1  -3.19038578E+003                   -2.64468784E-001     121.93  <-- SCF
      2  -3.19063362E+003                    7.74506368E-003     123.05  <-- SCF
      3  -3.19043479E+003                   -6.21321684E-003     124.06  <-- SCF
      4  -3.19051316E+003                    2.44901405E-003     125.14  <-- SCF
      5  -3.19053275E+003                    6.12073656E-004     126.26  <-- SCF
      6  -3.19053304E+003                    9.04839977E-006     127.11  <-- SCF
      7  -3.19053308E+003                    1.17069556E-006     127.91  <-- SCF
      8  -3.19053303E+003                   -1.31600906E-006     128.68  <-- SCF
------------------------------------------------------------------------ <-- SCF
 
Final energy =  -3190.533034160     eV
(energy not corrected for finite basis set)
 
(SEDC) Total Energy Correction : -0.745345E+00 eV

Dispersion corrected final energy* =  -3191.278379471     eV
 
 ************************************** Forces **************************************
 *                                                                                  *
 *                           Cartesian components (eV/A)                            *
 * -------------------------------------------------------------------------------- *
 *                         x                    y                    z              *
 *                                                                                  *
 * H               1     -0.00835              0.14742             -0.03389         *
 * H               2     -0.12036             -0.09159             -0.07093         *
 * H               3     -0.02561              0.02355             -0.02751         *
 * H               4     -0.00266              0.01371             -0.01151         *
 * H               5     -0.14906             -0.01340              0.00847         *
 * H               6     -0.06572              0.21422              0.01488         *
 * H               7      0.13512             -0.00662              0.02965         *
 * H               8      0.04221             -0.05277             -0.00755         *
 * H               9     -0.04933              0.02415             -0.08473         *
 * H              10     -0.01826              0.01358             -0.07397         *
 * H              11      0.11778             -0.24688              0.95294         *
 * H              12      0.11325             -0.09885              0.98422         *
 * H              13      0.06733             -0.13553              1.02898         *
 * H              14      0.36597              0.15773              0.11471         *
 * H              15      0.01200             -0.42098             -0.00476         *
 * H              16      0.02742             -0.02414             -0.06225         *
 * H              17      0.03475             -0.00462             -0.04683         *
 * H              18      0.00437             -0.02998             -0.03793         *
 * H              19     -0.01198              0.01422             -0.03872         *
 * H              20      0.00973              0.01459             -0.03079         *
 * C               1     -0.07859              0.04033              0.09883         *
 * C               2     -0.17685              0.09410              0.06320         *
 * C               3     -0.10425              0.09514             -0.05838         *
 * C               4     -0.17217              0.01322             -0.19476         *
 * C               5      0.01377             -0.03582              0.28734         *
 * C               6      0.00191             -0.04397              0.12088         *
 * C               7     -0.04596              0.02964             -0.00348         *
 * N               1      0.45835             -0.09870              0.08256         *
 * O               1     -0.05470              0.07882             -0.55931         *
 * O               2     -0.08793              0.06658             -0.70732         *
 * O               3     -0.11435             -0.05493             -0.54035         *
 * Si              1     -0.11783              0.31777             -1.19170         *
 *                                                                                  *
 ************************************************************************************
  
 +------------+-------------+-------------+-----------------+ <-- min LBFGS
 |    Step    |   lambda    |   F.delta'  |    enthalpy     | <-- min LBFGS
 +------------+-------------+-------------+-----------------+ <-- min LBFGS
 |  previous  |    0.000000 |    2.243329 |    -3191.021545 | <-- min LBFGS
 | trial step |    1.000000 |   -2.434737 |    -3190.902463 | <-- min LBFGS
 |  line step |    0.479542 |   -0.225136 |    -3191.278379 | <-- min LBFGS
 +------------+-------------+-------------+-----------------+ <-- min LBFGS
  
 LBFGS: finished iteration     1 with enthalpy= -3.19127838E+003 eV
  
 +-----------+-----------------+-----------------+------------+-----+ <-- LBFGS
 | Parameter |      value      |    tolerance    |    units   | OK? | <-- LBFGS
 +-----------+-----------------+-----------------+------------+-----+ <-- LBFGS
 |  dE/ion   |   8.026081E-003 |   2.000000E-005 |         eV | No  | <-- LBFGS
 |  |F|max   |   1.238954E+000 |   5.000000E-002 |       eV/A | No  | <-- LBFGS
 |  |dR|max  |   9.548651E-002 |   2.000000E-003 |          A | No  | <-- LBFGS
 +-----------+-----------------+-----------------+------------+-----+ <-- LBFGS
  

================================================================================
 Starting LBFGS iteration          2 ...
================================================================================
  
 +------------+-------------+-------------+-----------------+ <-- min LBFGS
 |    Step    |   lambda    |   F.delta'  |    enthalpy     | <-- min LBFGS
 +------------+-------------+-------------+-----------------+ <-- min LBFGS
 |  previous  |    0.000000 |    1.233936 |    -3191.278379 | <-- min LBFGS
 +------------+-------------+-------------+-----------------+ <-- min LBFGS
  

--------------------------------------------------------------------------------
 LBFGS: starting iteration         2 with trial guess (lambda=  1.000000)
--------------------------------------------------------------------------------
 
                           -------------------------------
                                     Cell Contents
                           -------------------------------
 
            xxxxxxxxxxxxxxxxxxxxxxxxxxxxxxxxxxxxxxxxxxxxxxxxxxxxxxxxxxxxxxxxx
            x  Element         Atom        Fractional coordinates of atoms  x
            x                 Number           u          v          w      x
            x---------------------------------------------------------------x
            x  H                 1         0.612546   0.412103   0.552983   x
            x  H                 2         0.678404   0.485640   0.559939   x
            x  H                 3         0.455140   0.465298   0.571294   x
            x  H                 4         0.522348   0.538357   0.578883   x
            x  H                 5         0.731059   0.488805   0.510669   x
            x  H                 6         0.666829   0.414039   0.504164   x
            x  H                 7         0.708001   0.477027   0.457177   x
            x  H                 8         0.631938   0.541271   0.469481   x
            x  H                 9         0.481769   0.466084   0.467990   x
            x  H                10         0.559977   0.399121   0.459007   x
            x  H                11         0.504964   0.564369   0.393955   x
            x  H                12         0.428822   0.426638   0.383721   x
            x  H                13         0.646019   0.450099   0.380011   x
            x  H                14         0.515587   0.469491   0.516798   x
            x  H                15         0.576779   0.538768   0.523294   x
            x  H                16         0.562455   0.404004   0.607334   x
            x  H                17         0.628966   0.476507   0.615079   x
            x  H                18         0.500430   0.454390   0.653671   x
            x  H                19         0.405181   0.457276   0.626580   x
            x  H                20         0.474077   0.529185   0.635262   x
            x  C                 1         0.605069   0.465430   0.554815   x
            x  C                 2         0.528375   0.484580   0.577758   x
            x  C                 3         0.662075   0.467595   0.502011   x
            x  C                 4         0.641316   0.487792   0.470233   x
            x  C                 5         0.551247   0.452589   0.456597   x
            x  C                 6         0.555797   0.457634   0.608573   x
            x  C                 7         0.479300   0.475845   0.632274   x
            x  N                 1         0.584582   0.487903   0.523827   x
            x  O                 1         0.440105   0.425274   0.404501   x
            x  O                 2         0.643399   0.446777   0.400929   x
            x  O                 3         0.515646   0.549430   0.413639   x
            x  Si                1         0.535488   0.469839   0.415637   x
            xxxxxxxxxxxxxxxxxxxxxxxxxxxxxxxxxxxxxxxxxxxxxxxxxxxxxxxxxxxxxxxxx
 
 
------------------------------------------------------------------------ <-- SCF
SCF loop      Energy                           Energy gain       Timer   <-- SCF
                                               per atom          (sec)   <-- SCF
------------------------------------------------------------------------ <-- SCF
Initial  -3.20428158E+003                                        130.02  <-- SCF
      1  -3.19028051E+003                   -4.37533669E-001     130.81  <-- SCF
      2  -3.19054246E+003                    8.18613367E-003     131.99  <-- SCF
      3  -3.19044124E+003                   -3.16308930E-003     133.00  <-- SCF
      4  -3.19052054E+003                    2.47817017E-003     134.01  <-- SCF
      5  -3.19052461E+003                    1.27016554E-004     135.14  <-- SCF
      6  -3.19052488E+003                    8.40902283E-006     136.04  <-- SCF
      7  -3.19052469E+003                   -5.94219631E-006     136.85  <-- SCF
      8  -3.19052443E+003                   -8.21817570E-006     137.71  <-- SCF
      9  -3.19052445E+003                    7.50988740E-007     138.48  <-- SCF
     10  -3.19052462E+003                    5.25643621E-006     139.28  <-- SCF
     11  -3.19052486E+003                    7.50998441E-006     140.05  <-- SCF
     12  -3.19052508E+003                    6.82942524E-006     140.83  <-- SCF
     13  -3.19052533E+003                    7.94772214E-006     141.64  <-- SCF
     14  -3.19052551E+003                    5.64078191E-006     142.42  <-- SCF
     15  -3.19052567E+003                    4.93092062E-006     143.19  <-- SCF
     16  -3.19052581E+003                    4.55496558E-006     143.97  <-- SCF
     17  -3.19052594E+003                    3.77689456E-006     144.75  <-- SCF
     18  -3.19052604E+003                    3.24974483E-006     145.54  <-- SCF
     19  -3.19052611E+003                    2.30012170E-006     146.32  <-- SCF
     20  -3.19052618E+003                    1.94136636E-006     147.10  <-- SCF
     21  -3.19052621E+003                    1.15369742E-006     147.89  <-- SCF
     22  -3.19052625E+003                    1.20345562E-006     148.68  <-- SCF
     23  -3.19052627E+003                    6.92973789E-007     149.47  <-- SCF
------------------------------------------------------------------------ <-- SCF
 
Final energy =  -3190.526273087     eV
(energy not corrected for finite basis set)
 
(SEDC) Total Energy Correction : -0.745684E+00 eV

[...]
 * H              18      0.00309             -0.00158              0.00413         *
 * H              19      0.00264             -0.00021              0.00215         *
 * H              20     -0.00008             -0.00047             -0.00067         *
 * C               1      0.00185             -0.00063             -0.00603         *
 * C               2     -0.00146              0.00133             -0.00072         *
 * C               3      0.00040              0.00986              0.00131         *
 * C               4      0.00131             -0.00788             -0.00050         *
 * C               5      0.00173              0.00068              0.00041         *
 * C               6      0.00036             -0.00066              0.00247         *
 * C               7     -0.00351              0.00304             -0.00771         *
 * N               1     -0.00517             -0.00825              0.00289         *
 * O               1      0.00254              0.00151              0.00114         *
 * O               2     -0.00164              0.00113              0.00494         *
 * O               3     -0.00329             -0.00235              0.00420         *
 * Si              1     -0.00064             -0.00164              0.00012         *
 *                                                                                  *
 ************************************************************************************
 
 Pseudo atomic calculation performed for H 1s1
 
 Converged in 13 iterations to a total energy of -12.4790 eV
 
 Pseudo atomic calculation performed for C 2s2 2p2
 
 Converged in 17 iterations to a total energy of -148.5208 eV
 
 Pseudo atomic calculation performed for N 2s2 2p3
 
 Converged in 21 iterations to a total energy of -268.1820 eV
 
 Pseudo atomic calculation performed for O 2s2 2p4
 
 Converged in 23 iterations to a total energy of -432.6536 eV
 
 Pseudo atomic calculation performed for Si 3s2 3p2
 
 Converged in 11 iterations to a total energy of -165.0683 eV
Charge spilling parameter for spin component 1 = 1.54%
 
            Orbital Populations       
     Ion    Atom   Orbital             Charge
  -------------------------------------------
      H     1      S                    0.689
      H     2      S                    0.689
      H     3      S                    0.730
      H     4      S                    0.729
      H     5      S                    0.683
      H     6      S                    0.690
      H     7      S                    0.680
      H     8      S                    0.716
      H     9      S                    0.770
      H    10      S                    0.724
      H    11      S                    0.463
      H    12      S                    0.460
      H    13      S                    0.462
      H    14      S                    0.522
      H    15      S                    0.508
      H    16      S                    0.727
      H    17      S                    0.726
      H    18      S                    0.697
      H    19      S                    0.731
      H    20      S                    0.727
      C     1      S                    1.301
      C     1      Px                   1.157
      C     1      Py                   1.180
      C     1      Pz                   0.765
      C     2      S                    1.300
      C     2      Px                   1.074
      C     2      Py                   1.168
      C     2      Pz                   0.983
      C     3      S                    1.305
      C     3      Px                   0.958
      C     3      Py                   1.222
      C     3      Pz                   0.922
      C     4      S                    1.299
      C     4      Px                   1.105
      C     4      Py                   1.161
      C     4      Pz                   0.979
      C     5      S                    1.399
      C     5      Px                   1.074
      C     5      Py                   1.175
      C     5      Pz                   1.309
      C     6      S                    1.305
      C     6      Px                   1.122
      C     6      Py                   1.160
      C     6      Pz                   0.923
      C     7      S                    1.400
      C     7      Px                   1.097
      C     7      Py                   1.187
      C     7      Pz                   1.111
      N     1      S                    1.582
      N     1      Px                   1.358
      N     1      Py                   1.413
      N     1      Pz                   1.269
      O     1      S                    1.852
      O     1      Px                   1.771
      O     1      Py                   1.844
      O     1      Pz                   1.629
      O     2      S                    1.853
      O     2      Px                   1.773
      O     2      Py                   1.895
      O     2      Pz                   1.577
      O     3      S                    1.854
      O     3      Px                   1.895
      O     3      Py                   1.674
      O     3      Pz                   1.678
     Si     1      S                    0.703
     Si     1      Px                   0.331
     Si     1      Py                   0.333
     Si     1      Pz                   0.453
  -------------------------------------------
                           Total:      74.000
  -------------------------------------------
 
     Atomic Populations (Mulliken)
     -----------------------------
Species          Ion     s       p       d       f      Total   Charge (e)
==========================================================================
  H               1     0.689   0.000   0.000   0.000   0.689     0.311
  H               2     0.689   0.000   0.000   0.000   0.689     0.311
  H               3     0.730   0.000   0.000   0.000   0.730     0.270
  H               4     0.729   0.000   0.000   0.000   0.729     0.271
  H               5     0.683   0.000   0.000   0.000   0.683     0.317
  H               6     0.690   0.000   0.000   0.000   0.690     0.310
  H               7     0.680   0.000   0.000   0.000   0.680     0.320
  H               8     0.716   0.000   0.000   0.000   0.716     0.284
  H               9     0.770   0.000   0.000   0.000   0.770     0.230
  H              10     0.724   0.000   0.000   0.000   0.724     0.276
  H              11     0.463   0.000   0.000   0.000   0.463     0.537
  H              12     0.460   0.000   0.000   0.000   0.460     0.540
  H              13     0.462   0.000   0.000   0.000   0.462     0.538
  H              14     0.522   0.000   0.000   0.000   0.522     0.478
  H              15     0.508   0.000   0.000   0.000   0.508     0.492
  H              16     0.727   0.000   0.000   0.000   0.727     0.273
  H              17     0.726   0.000   0.000   0.000   0.726     0.274
  H              18     0.697   0.000   0.000   0.000   0.697     0.303
  H              19     0.731   0.000   0.000   0.000   0.731     0.269
  H              20     0.727   0.000   0.000   0.000   0.727     0.273
  C               1     1.301   3.103   0.000   0.000   4.403    -0.403
  C               2     1.300   3.225   0.000   0.000   4.525    -0.525
  C               3     1.305   3.102   0.000   0.000   4.407    -0.407
  C               4     1.299   3.245   0.000   0.000   4.543    -0.543
  C               5     1.399   3.558   0.000   0.000   4.957    -0.957
  C               6     1.305   3.205   0.000   0.000   4.511    -0.511
  C               7     1.400   3.395   0.000   0.000   4.795    -0.795
  N               1     1.582   4.041   0.000   0.000   5.623    -0.623
  O               1     1.852   5.243   0.000   0.000   7.095    -1.095
  O               2     1.853   5.245   0.000   0.000   7.098    -1.098
  O               3     1.854   5.247   0.000   0.000   7.100    -1.100
  Si              1     0.703   1.117   0.000   0.000   1.820     2.180
==========================================================================
 
                 Bond                   Population      Length (A)
======================================================================
              H 12 -- O 1                    0.53        0.96739
              H 11 -- O 3                    0.53        0.96832
              H 13 -- O 2                    0.53        0.96868
              H 15 -- N 1                    0.67        1.02856
              H 14 -- N 1                    0.69        1.03129
              H 5  -- C 3                    0.84        1.09733
              H 18 -- C 7                    0.81        1.09761
              H 6  -- C 3                    0.86        1.09848
              H 1  -- C 1                    0.85        1.09853
              H 2  -- C 1                    0.85        1.09907
              H 20 -- C 7                    0.81        1.09953
              H 19 -- C 7                    0.81        1.10004
              H 7  -- C 4                    0.83        1.10114
              H 8  -- C 4                    0.84        1.10121
              H 17 -- C 6                    0.84        1.10167
              H 16 -- C 6                    0.84        1.10250
              H 4  -- C 2                    0.84        1.10294
              H 10 -- C 5                    0.82        1.10329
              H 3  -- C 2                    0.84        1.10362
              H 9  -- C 5                    0.83        1.10488
               C 3 -- N 1                    0.50        1.51336
               C 1 -- N 1                    0.51        1.51504
               C 3 -- C 4                    0.71        1.51883
               C 1 -- C 2                    0.71        1.51960
               C 6 -- C 7                    0.65        1.52837
               C 4 -- C 5                    0.67        1.53588
               C 2 -- C 6                    0.68        1.53711
               O 1 -- Si 1                   0.51        1.64039
               O 2 -- Si 1                   0.50        1.64707
               O 3 -- Si 1                   0.50        1.64787
              H 14 -- H 15                  -0.11        1.64871
              H 7  -- H 8                   -0.10        1.75624
              H 16 -- H 17                  -0.12        1.76543
              H 18 -- H 20                  -0.10        1.77119
              H 18 -- H 19                  -0.10        1.77513
              H 3  -- H 4                   -0.12        1.77906
              H 1  -- H 2                   -0.11        1.77938
              H 19 -- H 20                  -0.10        1.78120
              H 9  -- H 10                  -0.10        1.78356
              H 5  -- H 6                   -0.11        1.78776
               C 5 -- Si 1                   0.60        1.87739
              H 14 -- C 3                   -0.12        2.07562
              H 1  -- N 1                   -0.11        2.09480
              H 6  -- N 1                   -0.11        2.09558
              H 15 -- C 3                   -0.12        2.09583
              H 14 -- C 1                   -0.13        2.09839
              H 9  -- H 14                  -0.03        2.09899
              H 5  -- N 1                   -0.11        2.10190
              H 2  -- N 1                   -0.11        2.10191
              H 15 -- C 1                   -0.12        2.10486
              H 7  -- C 3                   -0.14        2.11355
              H 17 -- C 2                   -0.13        2.16137
              H 17 -- C 7                   -0.13        2.16180
              H 4  -- C 1                   -0.14        2.16311
              H 16 -- C 2                   -0.13        2.16466
              H 8  -- C 3                   -0.14        2.16617
              H 4  -- C 6                   -0.12        2.16739
              H 16 -- C 7                   -0.13        2.16828
              H 6  -- C 4                   -0.13        2.16830
              H 3  -- C 6                   -0.12        2.16885
              H 3  -- C 1                   -0.13        2.17028
              H 7  -- C 5                   -0.12        2.17119
              H 18 -- C 6                   -0.12        2.17229
              H 1  -- C 2                   -0.12        2.17716
              H 2  -- C 2                   -0.12        2.17901
              H 8  -- C 5                   -0.13        2.18171
              H 20 -- C 6                   -0.12        2.18201
              H 10 -- C 4                   -0.11        2.18503
              H 19 -- C 6                   -0.12        2.18666
              H 5  -- C 4                   -0.12        2.19501
              H 9  -- C 4                   -0.11        2.20380
              H 11 -- Si 1                  -0.13        2.30642
              H 13 -- Si 1                  -0.13        2.31017
              H 12 -- Si 1                  -0.13        2.31470
              H 1  -- H 14                  -0.04        2.37177
              H 1  -- H 6                   -0.02        2.37577
              H 5  -- H 15                  -0.04        2.37746
              H 6  -- H 14                  -0.03        2.43209
              H 9  -- Si 1                  -0.13        2.43725
              H 2  -- H 5                   -0.02        2.44692
              H 10 -- Si 1                  -0.11        2.46002
              H 2  -- H 15                  -0.03        2.46539
              H 5  -- H 7                   -0.03        2.47850
              H 6  -- H 7                   -0.03        2.48071
              H 17 -- H 18                  -0.03        2.49100
               C 1 -- C 6                   -0.15        2.50330
              H 16 -- H 18                  -0.03        2.50368
              H 4  -- H 17                  -0.03        2.50912
               C 4 -- N 1                   -0.13        2.51016
              H 3  -- H 16                  -0.03        2.51381
              H 2  -- H 17                  -0.01        2.51711
              H 5  -- H 8                   -0.03        2.52172
              H 2  -- H 4                   -0.03        2.52286
              H 17 -- H 20                  -0.03        2.52417
              H 1  -- H 16                  -0.01        2.52514
               C 1 -- C 3                   -0.14        2.52687
              H 8  -- H 9                   -0.03        2.53135
              H 1  -- H 3                   -0.03        2.53181
              H 16 -- H 19                  -0.03        2.53544
               C 2 -- N 1                   -0.13        2.54183
              H 6  -- H 10                  -0.01        2.54943
               C 3 -- C 5                   -0.16        2.55336
               C 2 -- C 7                   -0.15        2.55342
              H 4  -- H 15                  -0.00        2.55827
              H 7  -- H 10                  -0.02        2.56635
              H 14 -- C 5                   -0.01        2.58739
              H 4  -- H 20                  -0.01        2.60166
              H 3  -- H 19                  -0.01        2.62224
              H 14 -- C 4                   -0.04        2.62373
              H 3  -- H 14                  -0.00        2.63293
              H 6  -- C 1                   -0.05        2.63758
              H 8  -- H 15                  -0.00        2.63941
              H 2  -- C 3                   -0.04        2.66254
              H 7  -- O 2                    0.00        2.66599
              H 17 -- C 1                   -0.04        2.71024
              H 16 -- C 1                   -0.04        2.71974
              H 15 -- C 2                   -0.03        2.72160
              H 1  -- C 3                   -0.03        2.72506
               O 2 -- O 3                   -0.08        2.73610
               O 1 -- O 3                   -0.08        2.75159
              H 10 -- C 3                   -0.05        2.76198
               O 1 -- O 2                   -0.07        2.76505
              H 5  -- C 1                   -0.03        2.76545
              H 15 -- C 4                   -0.02        2.76795
              H 1  -- C 6                   -0.03        2.76902
              H 2  -- C 6                   -0.03        2.77091
              H 4  -- C 7                   -0.04        2.78278
               C 5 -- O 3                   -0.10        2.78430
               C 5 -- O 2                   -0.10        2.78434
              H 3  -- C 7                   -0.03        2.79025
              H 14 -- C 2                   -0.02        2.79317
              H 6  -- C 5                   -0.04        2.79435
              H 3  -- N 1                   -0.02        2.80212
              H 8  -- N 1                   -0.02        2.80247
              H 4  -- N 1                   -0.02        2.80264
              H 10 -- H 14                  -0.00        2.81285
               C 4 -- Si 1                  -0.16        2.81857
              H 9  -- N 1                   -0.03        2.81898
              H 20 -- C 2                   -0.04        2.82272
               C 5 -- O 1                   -0.09        2.82987
              H 19 -- C 2                   -0.03        2.83440
              H 2  -- H 6                   -0.01        2.83607
              H 8  -- O 3                   -0.00        2.85670
              H 9  -- C 3                   -0.02        2.91091
              H 7  -- Si 1                  -0.06        2.93767
              H 5  -- H 14                   0.03        2.94701
              H 9  -- O 3                   -0.00        2.95285
              H 6  -- H 15                   0.03        2.95565
              H 1  -- H 15                   0.03        2.96112
              H 2  -- H 14                   0.03        2.96202
              H 10 -- O 1                   -0.01        2.99733
              H 8  -- H 14                  -0.00        2.99794
======================================================================
 
 
     Hirshfeld Analysis
     ------------------
Species   Ion     Hirshfeld Charge (e)
======================================
  H        1                 0.07
  H        2                 0.07
  H        3                 0.05
  H        4                 0.05
  H        5                 0.07
  H        6                 0.07
  H        7                 0.06
  H        8                 0.05
  H        9                 0.04
  H       10                 0.05
  H       11                 0.17
  H       12                 0.18
  H       13                 0.17
  H       14                 0.16
  H       15                 0.18
  H       16                 0.04
  H       17                 0.05
  H       18                 0.06
  H       19                 0.04
  H       20                 0.05
  C        1                 0.01
  C        2                -0.06
  C        3                 0.01
  C        4                -0.06
  C        5                -0.15
  C        6                -0.05
  C        7                -0.10
  N        1                 0.03
  O        1                -0.28
  O        2                -0.28
  O        3                -0.29
  Si       1                 0.48
======================================
 

Writing analysis data to Conf_0029.castep_bin

Writing model to Conf_0029.check
 
 A BibTeX formatted list of references used in this run has been written to 
 Conf_0029.bib
 
Initialisation time =     24.67 s
Calculation time    =    746.05 s
Finalisation time   =      1.13 s
Total time          =    771.84 s
Peak Memory Use     = 7916796 kB
 
Overall parallel efficiency rating: Satisfactory (66%)
 
Data was distributed by:-
G-vector (48-way); efficiency rating: Satisfactory (66%)
High Water Mark     = 1786064 kB
